================================================================================
| EXCITING BORON started                                                       =
| version hash id:                                                             =
| MPI version using     16 processor(s)                                        =
|                                                                              =
| Date (DD-MM-YYYY) : 12-08-2015                                               =
| Time (hh:mm:ss)   : 23:42:43                                                 =
|                                                                              =
| All units are atomic (Hartree, Bohr, etc.)                                   =
================================================================================
 
********************************************************************************
| Structural optimisation starting from atomic densities                       *
********************************************************************************
 
++++++++++++++++++++++++++++++++++++++++++++++++++++++++++++++++++++++++++++++++
| Starting initialization                                                      +
++++++++++++++++++++++++++++++++++++++++++++++++++++++++++++++++++++++++++++++++
 
 Lattice vectors (cartesian) :
      2.4626653203      4.0231944652      0.2422669917
     -2.4626653203      4.0231944652      0.2422669917
      0.0000000000      0.3952808517      6.5642113435
 
 Reciprocal lattice vectors (cartesian) :
      1.2756880229      0.7837120587     -0.0471932352
     -1.2756880229      0.7837120587     -0.0471932352
      0.0000000000     -0.0578493144      0.9606716943
 
 Unit cell volume                           :     129.6018763295
 Brillouin zone volume                      :       1.9139399866
 
 Species :    1 (C)
     parameters loaded from                 :    C.xml
     name                                   :    carbon
     nuclear charge                         :      -6.00000000
     electronic charge                      :       6.00000000
     atomic mass                            :   21894.16673000
     muffin-tin radius                      :       1.20000000
     # of radial points in muffin-tin       :     250
 
     atomic positions (lattice) :
       1 :   0.00000000  0.00000000  0.00000000
       2 :   0.33333333  0.33333333  0.00000000
 
 Total number of atoms per unit cell        :       2
 
 Spin treatment                             :    spin-unpolarised
 
 Number of Bravais lattice symmetries       :       4
 Number of crystal symmetries               :       4
 
 k-point grid                               :      34   34   24
 Total number of k-points                   :    7159
 k-point set is reduced with crystal symmetries
 
 R^MT_min * |G+k|_max (rgkmax)              :       8.00000000
 Species with R^MT_min                      :       1 (C)
 Maximum |G+k| for APW functions            :       6.66666667
 Maximum |G| for potential and density      :      20.00000000
 
 G-vector grid sizes                        :      32    32    45
 Total number of G-vectors                  :   17447
 
 Maximum angular momentum used for
     APW functions                          :       8
     computing H and O matrix elements      :       8
     potential and density                  :       8
     inner part of muffin-tin               :       2
 
 Total nuclear charge                       :     -12.00000000
 Total electronic charge                    :      12.00000000
 Total core charge                          :       4.00000000
 Total valence charge                       :       8.00000000
 
 Number of empty states                     :       5
 Total number of valence states             :      10
 
 Maximum Hamiltonian size                   :     682
 Maximum number of plane-waves              :     674
 Total number of local-orbitals             :       8
 
 Exchange-correlation type                  :      20
     Perdew-Burke-Ernzerhof, Phys. Rev. Lett. 77, 3865 (1996)
     Generalised gradient approximation (GGA)
 
 Smearing scheme                            :    Gaussian
 Smearing width                             :       0.01000000
 
 Using multisecant Broyden potential mixing
 
++++++++++++++++++++++++++++++++++++++++++++++++++++++++++++++++++++++++++++++++
| Ending initialization                                                        +
++++++++++++++++++++++++++++++++++++++++++++++++++++++++++++++++++++++++++++++++
 
********************************************************************************
| Groundstate module started                                                   *
********************************************************************************
 Output level for this task is set to normal
 
++++++++++++++++++++++++++++++++++++++++++++++++++++++++++++++++++++++++++++++++
| Self-consistent loop started                                                 +
++++++++++++++++++++++++++++++++++++++++++++++++++++++++++++++++++++++++++++++++
 Density and potential initialised from atomic data
 
 
++++++++++++++++++++++++++++++++++++++++++++++++++++++++++++++++++++++++++++++++
| SCF iteration number :    1                                                  +
++++++++++++++++++++++++++++++++++++++++++++++++++++++++++++++++++++++++++++++++
 Total energy                               :       -78.02605436
 _______________________________________________________________
 Fermi energy                               :         0.15160606
 Kinetic energy                             :        74.47388650
 Coulomb energy                             :      -141.65506965
 Exchange energy                            :       -10.42998284
 Correlation energy                         :        -0.41488837
 
 DOS at Fermi energy (states/Ha/cell)       :         1.11240416
 
 Electron charges :
     core                                   :         4.00000000
     core leakage                           :         0.00127727
     valence                                :         8.00000000
     interstitial                           :         4.67410828
     charge in muffin-tin spheres :
                  atom     1     C          :         3.66294586
                  atom     2     C          :         3.66294586
     total charge in muffin-tins            :         7.32589172
     total charge                           :        12.00000000
 
 Wall time (seconds)                        :       193.68
 
++++++++++++++++++++++++++++++++++++++++++++++++++++++++++++++++++++++++++++++++
| SCF iteration number :    2                                                  +
++++++++++++++++++++++++++++++++++++++++++++++++++++++++++++++++++++++++++++++++
 Total energy                               :       -77.35265012
 _______________________________________________________________
 Fermi energy                               :         0.17032054
 Kinetic energy                             :        74.92449815
 Coulomb energy                             :      -141.46499649
 Exchange energy                            :       -10.39640672
 Correlation energy                         :        -0.41574506
 
 DOS at Fermi energy (states/Ha/cell)       :         1.17795226
 
 Electron charges :
     core                                   :         4.00000000
     core leakage                           :         0.00128741
     valence                                :         8.00000000
     interstitial                           :         4.73001658
     charge in muffin-tin spheres :
                  atom     1     C          :         3.63499171
                  atom     2     C          :         3.63499171
     total charge in muffin-tins            :         7.26998342
     total charge                           :        12.00000000
 
 Wall time (seconds)                        :       385.91
 
 RMS change in effective potential (target) :   1.54489      ( 0.100000E-05)
 Absolute change in total energy   (target) :  0.673404      ( 0.100000E-06)
 Charge distance                   (target) :  0.116469E-01  ( 0.100000E-04)
 Abs. change in max-nonIBS-force   (target) :  0.592126E-01  ( 0.250000E-05)
 
++++++++++++++++++++++++++++++++++++++++++++++++++++++++++++++++++++++++++++++++
| SCF iteration number :    3                                                  +
++++++++++++++++++++++++++++++++++++++++++++++++++++++++++++++++++++++++++++++++
 Total energy                               :       -76.87774574
 _______________________________________________________________
 Fermi energy                               :         0.18310410
 Kinetic energy                             :        75.23995730
 Coulomb energy                             :      -141.32905260
 Exchange energy                            :       -10.37224177
 Correlation energy                         :        -0.41640867
 
 DOS at Fermi energy (states/Ha/cell)       :         1.23026713
 
 Electron charges :
     core                                   :         4.00000000
     core leakage                           :         0.00129380
     valence                                :         8.00000000
     interstitial                           :         4.77049934
     charge in muffin-tin spheres :
                  atom     1     C          :         3.61475033
                  atom     2     C          :         3.61475033
     total charge in muffin-tins            :         7.22950066
     total charge                           :        12.00000000
 
 Wall time (seconds)                        :       578.20
 
 RMS change in effective potential (target) :   1.13838      ( 0.100000E-05)
 Absolute change in total energy   (target) :  0.474904      ( 0.100000E-06)
 Charge distance                   (target) :  0.853325E-02  ( 0.100000E-04)
 Abs. change in max-nonIBS-force   (target) :  0.248848E-01  ( 0.250000E-05)
 
++++++++++++++++++++++++++++++++++++++++++++++++++++++++++++++++++++++++++++++++
| SCF iteration number :    4                                                  +
++++++++++++++++++++++++++++++++++++++++++++++++++++++++++++++++++++++++++++++++
 Total energy                               :       -76.67597129
 _______________________________________________________________
 Fermi energy                               :         0.18815213
 Kinetic energy                             :        75.38864864
 Coulomb energy                             :      -141.28847221
 Exchange energy                            :       -10.35932171
 Correlation energy                         :        -0.41682601
 
 DOS at Fermi energy (states/Ha/cell)       :         1.26544908
 
 Electron charges :
     core                                   :         4.00000000
     core leakage                           :         0.00128587
     valence                                :         8.00000000
     interstitial                           :         4.79604542
     charge in muffin-tin spheres :
                  atom     1     C          :         3.60197729
                  atom     2     C          :         3.60197729
     total charge in muffin-tins            :         7.20395458
     total charge                           :        12.00000000
 
 Wall time (seconds)                        :       770.67
 
 RMS change in effective potential (target) :  0.560427E-01  ( 0.100000E-05)
 Absolute change in total energy   (target) :  0.201774      ( 0.100000E-06)
 Charge distance                   (target) :  0.595571E-02  ( 0.100000E-04)
 Abs. change in max-nonIBS-force   (target) :  0.298938E-01  ( 0.250000E-05)
 
++++++++++++++++++++++++++++++++++++++++++++++++++++++++++++++++++++++++++++++++
| SCF iteration number :    5                                                  +
++++++++++++++++++++++++++++++++++++++++++++++++++++++++++++++++++++++++++++++++
 Total energy                               :       -75.95357579
 _______________________________________________________________
 Fermi energy                               :         0.20675106
 Kinetic energy                             :        75.84642566
 Coulomb energy                             :      -141.05857375
 Exchange energy                            :       -10.32355284
 Correlation energy                         :        -0.41787486
 
 DOS at Fermi energy (states/Ha/cell)       :         1.34949922
 
 Electron charges :
     core                                   :         4.00000000
     core leakage                           :         0.00130332
     valence                                :         8.00000000
     interstitial                           :         4.85337804
     charge in muffin-tin spheres :
                  atom     1     C          :         3.57331098
                  atom     2     C          :         3.57331098
     total charge in muffin-tins            :         7.14662196
     total charge                           :        12.00000000
 
 Wall time (seconds)                        :       963.71
 
 RMS change in effective potential (target) :  0.300080E-01  ( 0.100000E-05)
 Absolute change in total energy   (target) :  0.722396      ( 0.100000E-06)
 Charge distance                   (target) :  0.118747E-01  ( 0.100000E-04)
 Abs. change in max-nonIBS-force   (target) :  0.116517E-01  ( 0.250000E-05)
 
++++++++++++++++++++++++++++++++++++++++++++++++++++++++++++++++++++++++++++++++
| SCF iteration number :    6                                                  +
++++++++++++++++++++++++++++++++++++++++++++++++++++++++++++++++++++++++++++++++
 Total energy                               :       -76.19866640
 _______________________________________________________________
 Fermi energy                               :         0.20056443
 Kinetic energy                             :        75.69174526
 Coulomb energy                             :      -141.13709647
 Exchange energy                            :       -10.33580486
 Correlation energy                         :        -0.41751034
 
 DOS at Fermi energy (states/Ha/cell)       :         1.31938218
 
 Electron charges :
     core                                   :         4.00000000
     core leakage                           :         0.00129753
     valence                                :         8.00000000
     interstitial                           :         4.83372255
     charge in muffin-tin spheres :
                  atom     1     C          :         3.58313873
                  atom     2     C          :         3.58313873
     total charge in muffin-tins            :         7.16627745
     total charge                           :        12.00000000
 
 Wall time (seconds)                        :      1156.11
 
 RMS change in effective potential (target) :  0.486269E-03  ( 0.100000E-05)
 Absolute change in total energy   (target) :  0.245091      ( 0.100000E-06)
 Charge distance                   (target) :  0.410096E-02  ( 0.100000E-04)
 Abs. change in max-nonIBS-force   (target) :  0.927263E-02  ( 0.250000E-05)
 
++++++++++++++++++++++++++++++++++++++++++++++++++++++++++++++++++++++++++++++++
| SCF iteration number :    7                                                  +
++++++++++++++++++++++++++++++++++++++++++++++++++++++++++++++++++++++++++++++++
 Total energy                               :       -76.20059318
 _______________________________________________________________
 Fermi energy                               :         0.20051026
 Kinetic energy                             :        75.69069669
 Coulomb energy                             :      -141.13788881
 Exchange energy                            :       -10.33589444
 Correlation energy                         :        -0.41750662
 
 DOS at Fermi energy (states/Ha/cell)       :         1.31931136
 
 Electron charges :
     core                                   :         4.00000000
     core leakage                           :         0.00129742
     valence                                :         8.00000000
     interstitial                           :         4.83358683
     charge in muffin-tin spheres :
                  atom     1     C          :         3.58320658
                  atom     2     C          :         3.58320658
     total charge in muffin-tins            :         7.16641317
     total charge                           :        12.00000000
 
 Wall time (seconds)                        :      1348.64
 
 RMS change in effective potential (target) :  0.112269E-03  ( 0.100000E-05)
 Absolute change in total energy   (target) :  0.192678E-02  ( 0.100000E-06)
 Charge distance                   (target) :  0.283060E-04  ( 0.100000E-04)
 Abs. change in max-nonIBS-force   (target) :  0.160632E-03  ( 0.250000E-05)
 
++++++++++++++++++++++++++++++++++++++++++++++++++++++++++++++++++++++++++++++++
| SCF iteration number :    8                                                  +
++++++++++++++++++++++++++++++++++++++++++++++++++++++++++++++++++++++++++++++++
 Total energy                               :       -76.20094688
 _______________________________________________________________
 Fermi energy                               :         0.20050094
 Kinetic energy                             :        75.69041650
 Coulomb energy                             :      -141.13794652
 Exchange energy                            :       -10.33591054
 Correlation energy                         :        -0.41750633
 
 DOS at Fermi energy (states/Ha/cell)       :         1.31924248
 
 Electron charges :
     core                                   :         4.00000000
     core leakage                           :         0.00129742
     valence                                :         8.00000000
     interstitial                           :         4.83355850
     charge in muffin-tin spheres :
                  atom     1     C          :         3.58322075
                  atom     2     C          :         3.58322075
     total charge in muffin-tins            :         7.16644150
     total charge                           :        12.00000000
 
 Wall time (seconds)                        :      1541.48
 
 RMS change in effective potential (target) :  0.947640E-05  ( 0.100000E-05)
 Absolute change in total energy   (target) :  0.353693E-03  ( 0.100000E-06)
 Charge distance                   (target) :  0.830217E-05  ( 0.100000E-04)
 Abs. change in max-nonIBS-force   (target) :  0.413219E-04  ( 0.250000E-05)
 
++++++++++++++++++++++++++++++++++++++++++++++++++++++++++++++++++++++++++++++++
| SCF iteration number :    9                                                  +
++++++++++++++++++++++++++++++++++++++++++++++++++++++++++++++++++++++++++++++++
 Total energy                               :       -76.20081581
 _______________________________________________________________
 Fermi energy                               :         0.20050423
 Kinetic energy                             :        75.69050239
 Coulomb energy                             :      -141.13790748
 Exchange energy                            :       -10.33590421
 Correlation energy                         :        -0.41750651
 
 DOS at Fermi energy (states/Ha/cell)       :         1.31925977
 
 Electron charges :
     core                                   :         4.00000000
     core leakage                           :         0.00129743
     valence                                :         8.00000000
     interstitial                           :         4.83356875
     charge in muffin-tin spheres :
                  atom     1     C          :         3.58321562
                  atom     2     C          :         3.58321562
     total charge in muffin-tins            :         7.16643125
     total charge                           :        12.00000000
 
 Wall time (seconds)                        :      1734.00
 
 RMS change in effective potential (target) :  0.180011E-05  ( 0.100000E-05)
 Absolute change in total energy   (target) :  0.131070E-03  ( 0.100000E-06)
 Charge distance                   (target) :  0.237575E-05  ( 0.100000E-04)
 Abs. change in max-nonIBS-force   (target) :  0.950978E-05  ( 0.250000E-05)
 
++++++++++++++++++++++++++++++++++++++++++++++++++++++++++++++++++++++++++++++++
| SCF iteration number :   10                                                  +
++++++++++++++++++++++++++++++++++++++++++++++++++++++++++++++++++++++++++++++++
 Total energy                               :       -76.20081336
 _______________________________________________________________
 Fermi energy                               :         0.20050431
 Kinetic energy                             :        75.69050452
 Coulomb energy                             :      -141.13790728
 Exchange energy                            :       -10.33590409
 Correlation energy                         :        -0.41750651
 
 DOS at Fermi energy (states/Ha/cell)       :         1.31926006
 
 Electron charges :
     core                                   :         4.00000000
     core leakage                           :         0.00129743
     valence                                :         8.00000000
     interstitial                           :         4.83356899
     charge in muffin-tin spheres :
                  atom     1     C          :         3.58321550
                  atom     2     C          :         3.58321550
     total charge in muffin-tins            :         7.16643101
     total charge                           :        12.00000000
 
 Wall time (seconds)                        :      1928.01
 
 RMS change in effective potential (target) :  0.171240E-06  ( 0.100000E-05)
 Absolute change in total energy   (target) :  0.245264E-05  ( 0.100000E-06)
 Charge distance                   (target) :  0.291640E-06  ( 0.100000E-04)
 Abs. change in max-nonIBS-force   (target) :  0.415164E-05  ( 0.250000E-05)
 
++++++++++++++++++++++++++++++++++++++++++++++++++++++++++++++++++++++++++++++++
| SCF iteration number :   11                                                  +
++++++++++++++++++++++++++++++++++++++++++++++++++++++++++++++++++++++++++++++++
 Total energy                               :       -76.20081367
 _______________________________________________________________
 Fermi energy                               :         0.20050430
 Kinetic energy                             :        75.69050437
 Coulomb energy                             :      -141.13790743
 Exchange energy                            :       -10.33590411
 Correlation energy                         :        -0.41750651
 
 DOS at Fermi energy (states/Ha/cell)       :         1.31926006
 
 Electron charges :
     core                                   :         4.00000000
     core leakage                           :         0.00129743
     valence                                :         8.00000000
     interstitial                           :         4.83356896
     charge in muffin-tin spheres :
                  atom     1     C          :         3.58321552
                  atom     2     C          :         3.58321552
     total charge in muffin-tins            :         7.16643104
     total charge                           :        12.00000000
 
 Wall time (seconds)                        :      2120.71
 
 RMS change in effective potential (target) :  0.464316E-07  ( 0.100000E-05)
 Absolute change in total energy   (target) :  0.312235E-06  ( 0.100000E-06)
 Charge distance                   (target) :  0.357303E-07  ( 0.100000E-04)
 Abs. change in max-nonIBS-force   (target) :  0.584271E-06  ( 0.250000E-05)
 
++++++++++++++++++++++++++++++++++++++++++++++++++++++++++++++++++++++++++++++++
| SCF iteration number :   12                                                  +
++++++++++++++++++++++++++++++++++++++++++++++++++++++++++++++++++++++++++++++++
 Total energy                               :       -76.20081368
 _______________________________________________________________
 Fermi energy                               :         0.20050430
 Kinetic energy                             :        75.69050437
 Coulomb energy                             :      -141.13790743
 Exchange energy                            :       -10.33590411
 Correlation energy                         :        -0.41750651
 
 DOS at Fermi energy (states/Ha/cell)       :         1.31926006
 
 Electron charges :
     core                                   :         4.00000000
     core leakage                           :         0.00129743
     valence                                :         8.00000000
     interstitial                           :         4.83356896
     charge in muffin-tin spheres :
                  atom     1     C          :         3.58321552
                  atom     2     C          :         3.58321552
     total charge in muffin-tins            :         7.16643104
     total charge                           :        12.00000000
 
 Wall time (seconds)                        :      2311.01
 
 RMS change in effective potential (target) :  0.328848E-07  ( 0.100000E-05)
 Absolute change in total energy   (target) :  0.135690E-07  ( 0.100000E-06)
 Charge distance                   (target) :  0.222219E-09  ( 0.100000E-04)
 Abs. change in max-nonIBS-force   (target) :  0.295235E-08  ( 0.250000E-05)
 
++++++++++++++++++++++++++++++++++++++++++++++++++++++++++++++++++++++++++++++++
| Convergence targets achieved. Performing final SCF iteration                 +
++++++++++++++++++++++++++++++++++++++++++++++++++++++++++++++++++++++++++++++++
 Total energy                               :       -76.20910091
 _______________________________________________________________
 Fermi energy                               :         0.20050430
 Kinetic energy                             :        75.69050434
 Coulomb energy                             :      -141.13790744
 Exchange energy                            :       -10.33590411
 Correlation energy                         :        -0.41750651
 DFT-D2 dispersion correction               :        -0.00828719
 
 DOS at Fermi energy (states/Ha/cell)       :         1.31926005
 
 Electron charges :
     core                                   :         4.00000000
     core leakage                           :         0.00129743
     valence                                :         8.00000000
     interstitial                           :         4.83356896
     charge in muffin-tin spheres :
                  atom     1     C          :         3.58321552
                  atom     2     C          :         3.58321552
     total charge in muffin-tins            :         7.16643104
     total charge                           :        12.00000000
 
++++++++++++++++++++++++++++++++++++++++++++++++++++++++++++++++++++++++++++++++
| Self-consistent loop stopped                                                 +
++++++++++++++++++++++++++++++++++++++++++++++++++++++++++++++++++++++++++++++++
 STATE.OUT is written
 
--------------------------------------------------------------------------------
| Writing atomic positions and forces                                          -
--------------------------------------------------------------------------------
 
 Atomic positions (lattice) :
 atom     1   C  :     0.00000000    0.00000000    0.00000000
 atom     2   C  :     0.33333333    0.33333333    0.00000000
 
 Total atomic forces including IBS (cartesian) :
 atom     1   C  :     0.00000000   -0.00660837   -0.00041223
 atom     2   C  :     0.00000000    0.00660837    0.00041223
 
 Atomic force components including IBS (cartesian) :
 atom     1   C  :     0.00000000    0.00930615    0.00051615   HF force
                 :     0.00000000   -0.01598026   -0.00094596   core correction
                 :     0.00000000   -0.00023295    0.00000083   IBS correction
                 :     0.00000000    0.00029870    0.00001674   DFT-D2 force
 atom     2   C  :     0.00000000   -0.00930615   -0.00051615   HF force
                 :     0.00000000    0.01598026    0.00094596   core correction
                 :     0.00000000    0.00023295   -0.00000083   IBS correction
                 :     0.00000000   -0.00029870   -0.00001674   DFT-D2 force
 
********************************************************************************
| Groundstate module stopped                                                   *
********************************************************************************
 
********************************************************************************
| Structure-optimization module started                                        *
********************************************************************************
 Output level for this task is set to normal
 
 Maximum displacement tau_BFGS   is         :         0.3000
 Maximum displacement tau_newton is         :         0.8000
 
++++++++++++++++++++++++++++++++++++++++++++++++++++++++++++++++++++++++++++++++
| Use harmonic method for optimizing atomic positions                          +
++++++++++++++++++++++++++++++++++++++++++++++++++++++++++++++++++++++++++++++++
 
--------------------------------------------------------------------------------
| Optimization step 0: Initialize optimization                                 -
--------------------------------------------------------------------------------
 Maximum force magnitude           (target) :         0.00662121  (  0.00001000)
 Total energy at this optimization step     :       -76.20910091
 
 Atomic positions at this step (lattice) :
 atom     1   C  :     0.00000000    0.00000000    0.00000000
 atom     2   C  :     0.33333333    0.33333333    0.00000000
 
 Total atomic forces including IBS (cartesian) :
 atom     1   C  :     0.00000000   -0.00660837   -0.00041223
 atom     2   C  :     0.00000000    0.00660837    0.00041223
 
--------------------------------------------------------------------------------
| Optimization step    1    (method = harmonic)                                -
--------------------------------------------------------------------------------
 Number of scf iterations                   :        12  (full newton step)
 Maximum force magnitude           (target) :         0.00146087  (  0.00001000)
 Total energy at this optimization step     :       -76.20914226
 
 Atomic positions at this step (lattice) :
 atom     1   C  :     0.00000000    0.00000000    0.00000000
 atom     2   C  :     0.33464721    0.33464721    0.00000350
 
 Total atomic forces including IBS (cartesian) :
 atom     1   C  :     0.00000000   -0.00145754   -0.00009858
 atom     2   C  :     0.00000000    0.00145754    0.00009858
 
 Time spent in this optimization step       :      2473.82 seconds
 
--------------------------------------------------------------------------------
| Optimization step    2    (method = harmonic)                                -
--------------------------------------------------------------------------------
 Number of scf iterations                   :        12  (full harmonic step)
 Maximum force magnitude           (target) :         0.00001485  (  0.00001000)
 Total energy at this optimization step     :       -76.20914409
 
 Atomic positions at this step (lattice) :
 atom     1   C  :     0.00000000    0.00000000    0.00000000
 atom     2   C  :     0.33501885    0.33501885    0.00000764
 
 Total atomic forces including IBS (cartesian) :
 atom     1   C  :     0.00000000   -0.00001306   -0.00000708
 atom     2   C  :     0.00000000    0.00001306    0.00000708
 
 Time spent in this optimization step       :      2426.68 seconds
 
--------------------------------------------------------------------------------
| Optimization step    3    (method = harmonic)                                -
--------------------------------------------------------------------------------
 Number of scf iterations                   :        10  (full harmonic step)
 Maximum force magnitude           (target) :         0.00000384  (  0.00001000)
 Total energy at this optimization step     :       -76.20914408
 
 Atomic positions at this step (lattice) :
 atom     1   C  :     0.00000000    0.00000000    0.00000000
 atom     2   C  :     0.33502210    0.33502210    0.00000985
 
 Total atomic forces including IBS (cartesian) :
 atom     1   C  :     0.00000000    0.00000023   -0.00000384
 atom     2   C  :     0.00000000   -0.00000023    0.00000384
 
 Time spent in this optimization step       :      2040.32 seconds
 
++++++++++++++++++++++++++++++++++++++++++++++++++++++++++++++++++++++++++++++++
| Force convergence target achieved                                            +
++++++++++++++++++++++++++++++++++++++++++++++++++++++++++++++++++++++++++++++++
 Total energy                               :       -76.20914408
 _______________________________________________________________
 Fermi energy                               :         0.20052023
 Kinetic energy                             :        75.68741922
 Coulomb energy                             :      -141.13542057
 Exchange energy                            :       -10.33534930
 Correlation energy                         :        -0.41751040
 DFT-D2 dispersion correction               :        -0.00828304
 
 DOS at Fermi energy (states/Ha/cell)       :         1.31850803
 
 Electron charges :
     core                                   :         4.00000000
     core leakage                           :         0.00129728
     valence                                :         8.00000000
     interstitial                           :         4.83508696
     charge in muffin-tin spheres :
                  atom     1     C          :         3.58245652
                  atom     2     C          :         3.58245652
     total charge in muffin-tins            :         7.16491304
     total charge                           :        12.00000000
 
 Optimized atomic positions (lattice) :
 atom     1   C  :     0.00000000    0.00000000    0.00000000
 atom     2   C  :     0.33502210    0.33502210    0.00000985
 
 Total atomic forces including IBS (cartesian) :
 atom     1   C  :     0.00000000    0.00000023   -0.00000384
 atom     2   C  :     0.00000000   -0.00000023    0.00000384
 
 Atomic force components including IBS (cartesian) :
 atom     1   C  :     0.00000000    0.01589251    0.00091976   HF force
                 :     0.00000000   -0.01591735   -0.00093961   core correction
                 :     0.00000000   -0.00028477   -0.00000134   IBS correction
                 :     0.00000000    0.00030984    0.00001736   DFT-D2 force
 atom     2   C  :     0.00000000   -0.01589251   -0.00091976   HF force
                 :     0.00000000    0.01591735    0.00093961   core correction
                 :     0.00000000    0.00028477    0.00000134   IBS correction
                 :     0.00000000   -0.00030984   -0.00001736   DFT-D2 force
 
********************************************************************************
| Structure-optimization module stopped                                        *
********************************************************************************
 
 Total time spent (seconds)                 :      9609.42
 
================================================================================
| EXCITING BORON stopped                                                       =
================================================================================
