================================================================================
| EXCITING BORON started                                                       =
| version hash id:                                                             =
| MPI version using     16 processor(s)                                        =
|                                                                              =
| Date (DD-MM-YYYY) : 13-08-2015                                               =
| Time (hh:mm:ss)   : 01:00:34                                                 =
|                                                                              =
| All units are atomic (Hartree, Bohr, etc.)                                   =
================================================================================
 
********************************************************************************
| Structural optimisation starting from atomic densities                       *
********************************************************************************
 
++++++++++++++++++++++++++++++++++++++++++++++++++++++++++++++++++++++++++++++++
| Starting initialization                                                      +
++++++++++++++++++++++++++++++++++++++++++++++++++++++++++++++++++++++++++++++++
 
 Lattice vectors (cartesian) :
      2.3270000000      4.0703899258      0.0401072548
     -2.3270000000      4.0703899258      0.0401072548
      0.0000000000      0.0654386705      6.5757764024
 
 Reciprocal lattice vectors (cartesian) :
      1.3500613036      0.7718918318     -0.0076814618
     -1.3500613036      0.7718918318     -0.0076814618
      0.0000000000     -0.0094159109      0.9555984096
 
 Unit cell volume                           :     124.5566283741
 Brillouin zone volume                      :       1.9914653815
 
 Species :    1 (C)
     parameters loaded from                 :    C.xml
     name                                   :    carbon
     nuclear charge                         :      -6.00000000
     electronic charge                      :       6.00000000
     atomic mass                            :   21894.16673000
     muffin-tin radius                      :       1.20000000
     # of radial points in muffin-tin       :     250
 
     atomic positions (lattice) :
       1 :   0.00000000  0.00000000  0.00000000
       2 :   0.33333333  0.33333333  0.00000000
 
 Total number of atoms per unit cell        :       2
 
 Spin treatment                             :    spin-unpolarised
 
 Number of Bravais lattice symmetries       :       4
 Number of crystal symmetries               :       4
 
 k-point grid                               :      34   34   24
 Total number of k-points                   :    7159
 k-point set is reduced with crystal symmetries
 
 R^MT_min * |G+k|_max (rgkmax)              :       8.00000000
 Species with R^MT_min                      :       1 (C)
 Maximum |G+k| for APW functions            :       6.66666667
 Maximum |G| for potential and density      :      20.00000000
 
 G-vector grid sizes                        :      30    30    45
 Total number of G-vectors                  :   16801
 
 Maximum angular momentum used for
     APW functions                          :       8
     computing H and O matrix elements      :       8
     potential and density                  :       8
     inner part of muffin-tin               :       2
 
 Total nuclear charge                       :     -12.00000000
 Total electronic charge                    :      12.00000000
 Total core charge                          :       4.00000000
 Total valence charge                       :       8.00000000
 
 Number of empty states                     :       5
 Total number of valence states             :      10
 
 Maximum Hamiltonian size                   :     652
 Maximum number of plane-waves              :     644
 Total number of local-orbitals             :       8
 
 Exchange-correlation type                  :      20
     Perdew-Burke-Ernzerhof, Phys. Rev. Lett. 77, 3865 (1996)
     Generalised gradient approximation (GGA)
 
 Smearing scheme                            :    Gaussian
 Smearing width                             :       0.01000000
 
 Using multisecant Broyden potential mixing
 
++++++++++++++++++++++++++++++++++++++++++++++++++++++++++++++++++++++++++++++++
| Ending initialization                                                        +
++++++++++++++++++++++++++++++++++++++++++++++++++++++++++++++++++++++++++++++++
 
********************************************************************************
| Groundstate module started                                                   *
********************************************************************************
 Output level for this task is set to normal
 
++++++++++++++++++++++++++++++++++++++++++++++++++++++++++++++++++++++++++++++++
| Self-consistent loop started                                                 +
++++++++++++++++++++++++++++++++++++++++++++++++++++++++++++++++++++++++++++++++
 Density and potential initialised from atomic data
 
 
++++++++++++++++++++++++++++++++++++++++++++++++++++++++++++++++++++++++++++++++
| SCF iteration number :    1                                                  +
++++++++++++++++++++++++++++++++++++++++++++++++++++++++++++++++++++++++++++++++
 Total energy                               :       -78.29754495
 _______________________________________________________________
 Fermi energy                               :         0.15867381
 Kinetic energy                             :        74.49309040
 Coulomb energy                             :      -141.88336490
 Exchange energy                            :       -10.48892819
 Correlation energy                         :        -0.41834226
 
 DOS at Fermi energy (states/Ha/cell)       :         0.98106455
 
 Electron charges :
     core                                   :         4.00000000
     core leakage                           :         0.00128176
     valence                                :         8.00000000
     interstitial                           :         4.56135944
     charge in muffin-tin spheres :
                  atom     1     C          :         3.71932028
                  atom     2     C          :         3.71932028
     total charge in muffin-tins            :         7.43864056
     total charge                           :        12.00000000
 
 Wall time (seconds)                        :       178.70
 
++++++++++++++++++++++++++++++++++++++++++++++++++++++++++++++++++++++++++++++++
| SCF iteration number :    2                                                  +
++++++++++++++++++++++++++++++++++++++++++++++++++++++++++++++++++++++++++++++++
 Total energy                               :       -77.52908044
 _______________________________________________________________
 Fermi energy                               :         0.18011281
 Kinetic energy                             :        75.01370962
 Coulomb energy                             :      -141.67186027
 Exchange energy                            :       -10.45168835
 Correlation energy                         :        -0.41924144
 
 DOS at Fermi energy (states/Ha/cell)       :         1.04719236
 
 Electron charges :
     core                                   :         4.00000000
     core leakage                           :         0.00129371
     valence                                :         8.00000000
     interstitial                           :         4.62361514
     charge in muffin-tin spheres :
                  atom     1     C          :         3.68819243
                  atom     2     C          :         3.68819243
     total charge in muffin-tins            :         7.37638486
     total charge                           :        12.00000000
 
 Wall time (seconds)                        :       355.89
 
 RMS change in effective potential (target) :   1.60652      ( 0.100000E-05)
 Absolute change in total energy   (target) :  0.768465      ( 0.100000E-06)
 Charge distance                   (target) :  0.127097E-01  ( 0.100000E-04)
 Abs. change in max-nonIBS-force   (target) :  0.101151E-01  ( 0.250000E-05)
 
++++++++++++++++++++++++++++++++++++++++++++++++++++++++++++++++++++++++++++++++
| SCF iteration number :    3                                                  +
++++++++++++++++++++++++++++++++++++++++++++++++++++++++++++++++++++++++++++++++
 Total energy                               :       -76.98524394
 _______________________________________________________________
 Fermi energy                               :         0.19474393
 Kinetic energy                             :        75.37892751
 Coulomb energy                             :      -141.51948717
 Exchange energy                            :       -10.42473786
 Correlation energy                         :        -0.41994642
 
 DOS at Fermi energy (states/Ha/cell)       :         1.10137030
 
 Electron charges :
     core                                   :         4.00000000
     core leakage                           :         0.00130138
     valence                                :         8.00000000
     interstitial                           :         4.66891296
     charge in muffin-tin spheres :
                  atom     1     C          :         3.66554352
                  atom     2     C          :         3.66554352
     total charge in muffin-tins            :         7.33108704
     total charge                           :        12.00000000
 
 Wall time (seconds)                        :       533.66
 
 RMS change in effective potential (target) :   1.18521      ( 0.100000E-05)
 Absolute change in total energy   (target) :  0.543836      ( 0.100000E-06)
 Charge distance                   (target) :  0.935909E-02  ( 0.100000E-04)
 Abs. change in max-nonIBS-force   (target) :  0.449251E-02  ( 0.250000E-05)
 
++++++++++++++++++++++++++++++++++++++++++++++++++++++++++++++++++++++++++++++++
| SCF iteration number :    4                                                  +
++++++++++++++++++++++++++++++++++++++++++++++++++++++++++++++++++++++++++++++++
 Total energy                               :       -76.74883174
 _______________________________________________________________
 Fermi energy                               :         0.20049902
 Kinetic energy                             :        75.55245697
 Coulomb energy                             :      -141.47077243
 Exchange energy                            :       -10.41011073
 Correlation energy                         :        -0.42040554
 
 DOS at Fermi energy (states/Ha/cell)       :         1.13804745
 
 Electron charges :
     core                                   :         4.00000000
     core leakage                           :         0.00129359
     valence                                :         8.00000000
     interstitial                           :         4.69791878
     charge in muffin-tin spheres :
                  atom     1     C          :         3.65104061
                  atom     2     C          :         3.65104061
     total charge in muffin-tins            :         7.30208122
     total charge                           :        12.00000000
 
 Wall time (seconds)                        :       711.09
 
 RMS change in effective potential (target) :  0.653887E-01  ( 0.100000E-05)
 Absolute change in total energy   (target) :  0.236412      ( 0.100000E-06)
 Charge distance                   (target) :  0.653120E-02  ( 0.100000E-04)
 Abs. change in max-nonIBS-force   (target) :  0.536383E-02  ( 0.250000E-05)
 
++++++++++++++++++++++++++++++++++++++++++++++++++++++++++++++++++++++++++++++++
| SCF iteration number :    5                                                  +
++++++++++++++++++++++++++++++++++++++++++++++++++++++++++++++++++++++++++++++++
 Total energy                               :       -75.93811638
 _______________________________________________________________
 Fermi energy                               :         0.22133393
 Kinetic energy                             :        76.07337789
 Coulomb energy                             :      -141.21910570
 Exchange energy                            :       -10.37088409
 Correlation energy                         :        -0.42150448
 
 DOS at Fermi energy (states/Ha/cell)       :         1.23080878
 
 Electron charges :
     core                                   :         4.00000000
     core leakage                           :         0.00131293
     valence                                :         8.00000000
     interstitial                           :         4.76100477
     charge in muffin-tin spheres :
                  atom     1     C          :         3.61949761
                  atom     2     C          :         3.61949761
     total charge in muffin-tins            :         7.23899523
     total charge                           :        12.00000000
 
 Wall time (seconds)                        :       888.45
 
 RMS change in effective potential (target) :  0.328004E-01  ( 0.100000E-05)
 Absolute change in total energy   (target) :  0.810715      ( 0.100000E-06)
 Charge distance                   (target) :  0.128813E-01  ( 0.100000E-04)
 Abs. change in max-nonIBS-force   (target) :  0.331389E-02  ( 0.250000E-05)
 
++++++++++++++++++++++++++++++++++++++++++++++++++++++++++++++++++++++++++++++++
| SCF iteration number :    6                                                  +
++++++++++++++++++++++++++++++++++++++++++++++++++++++++++++++++++++++++++++++++
 Total energy                               :       -76.20548397
 _______________________________________________________________
 Fermi energy                               :         0.21460044
 Kinetic energy                             :        75.90200574
 Coulomb energy                             :      -141.30241303
 Exchange energy                            :       -10.38394284
 Correlation energy                         :        -0.42113384
 
 DOS at Fermi energy (states/Ha/cell)       :         1.19781760
 
 Electron charges :
     core                                   :         4.00000000
     core leakage                           :         0.00130676
     valence                                :         8.00000000
     interstitial                           :         4.73995087
     charge in muffin-tin spheres :
                  atom     1     C          :         3.63002456
                  atom     2     C          :         3.63002456
     total charge in muffin-tins            :         7.26004913
     total charge                           :        12.00000000
 
 Wall time (seconds)                        :      1065.87
 
 RMS change in effective potential (target) :  0.607500E-03  ( 0.100000E-05)
 Absolute change in total energy   (target) :  0.267368      ( 0.100000E-06)
 Charge distance                   (target) :  0.433665E-02  ( 0.100000E-04)
 Abs. change in max-nonIBS-force   (target) :  0.165897E-02  ( 0.250000E-05)
 
++++++++++++++++++++++++++++++++++++++++++++++++++++++++++++++++++++++++++++++++
| SCF iteration number :    7                                                  +
++++++++++++++++++++++++++++++++++++++++++++++++++++++++++++++++++++++++++++++++
 Total energy                               :       -76.20638708
 _______________________________________________________________
 Fermi energy                               :         0.21457325
 Kinetic energy                             :        75.90171116
 Coulomb energy                             :      -141.30298423
 Exchange energy                            :       -10.38398285
 Correlation energy                         :        -0.42113116
 
 DOS at Fermi energy (states/Ha/cell)       :         1.19790125
 
 Electron charges :
     core                                   :         4.00000000
     core leakage                           :         0.00130665
     valence                                :         8.00000000
     interstitial                           :         4.73990083
     charge in muffin-tin spheres :
                  atom     1     C          :         3.63004959
                  atom     2     C          :         3.63004959
     total charge in muffin-tins            :         7.26009917
     total charge                           :        12.00000000
 
 Wall time (seconds)                        :      1243.20
 
 RMS change in effective potential (target) :  0.156381E-03  ( 0.100000E-05)
 Absolute change in total energy   (target) :  0.903108E-03  ( 0.100000E-06)
 Charge distance                   (target) :  0.186733E-04  ( 0.100000E-04)
 Abs. change in max-nonIBS-force   (target) :  0.233583E-04  ( 0.250000E-05)
 
++++++++++++++++++++++++++++++++++++++++++++++++++++++++++++++++++++++++++++++++
| SCF iteration number :    8                                                  +
++++++++++++++++++++++++++++++++++++++++++++++++++++++++++++++++++++++++++++++++
 Total energy                               :       -76.20704713
 _______________________________________________________________
 Fermi energy                               :         0.21455588
 Kinetic energy                             :        75.90121067
 Coulomb energy                             :      -141.30311424
 Exchange energy                            :       -10.38401297
 Correlation energy                         :        -0.42113059
 
 DOS at Fermi energy (states/Ha/cell)       :         1.19779275
 
 Electron charges :
     core                                   :         4.00000000
     core leakage                           :         0.00130665
     valence                                :         8.00000000
     interstitial                           :         4.73984869
     charge in muffin-tin spheres :
                  atom     1     C          :         3.63007565
                  atom     2     C          :         3.63007565
     total charge in muffin-tins            :         7.26015131
     total charge                           :        12.00000000
 
 Wall time (seconds)                        :      1420.58
 
 RMS change in effective potential (target) :  0.216299E-04  ( 0.100000E-05)
 Absolute change in total energy   (target) :  0.660051E-03  ( 0.100000E-06)
 Charge distance                   (target) :  0.125604E-04  ( 0.100000E-04)
 Abs. change in max-nonIBS-force   (target) :  0.581253E-05  ( 0.250000E-05)
 
++++++++++++++++++++++++++++++++++++++++++++++++++++++++++++++++++++++++++++++++
| SCF iteration number :    9                                                  +
++++++++++++++++++++++++++++++++++++++++++++++++++++++++++++++++++++++++++++++++
 Total energy                               :       -76.20691632
 _______________________________________________________________
 Fermi energy                               :         0.21455913
 Kinetic energy                             :        75.90129253
 Coulomb energy                             :      -141.30307146
 Exchange energy                            :       -10.38400662
 Correlation energy                         :        -0.42113077
 
 DOS at Fermi energy (states/Ha/cell)       :         1.19780708
 
 Electron charges :
     core                                   :         4.00000000
     core leakage                           :         0.00130665
     valence                                :         8.00000000
     interstitial                           :         4.73985879
     charge in muffin-tin spheres :
                  atom     1     C          :         3.63007060
                  atom     2     C          :         3.63007060
     total charge in muffin-tins            :         7.26014121
     total charge                           :        12.00000000
 
 Wall time (seconds)                        :      1598.43
 
 RMS change in effective potential (target) :  0.153132E-05  ( 0.100000E-05)
 Absolute change in total energy   (target) :  0.130806E-03  ( 0.100000E-06)
 Charge distance                   (target) :  0.203928E-05  ( 0.100000E-04)
 Abs. change in max-nonIBS-force   (target) :  0.499857E-06  ( 0.250000E-05)
 
++++++++++++++++++++++++++++++++++++++++++++++++++++++++++++++++++++++++++++++++
| SCF iteration number :   10                                                  +
++++++++++++++++++++++++++++++++++++++++++++++++++++++++++++++++++++++++++++++++
 Total energy                               :       -76.20691665
 _______________________________________________________________
 Fermi energy                               :         0.21455914
 Kinetic energy                             :        75.90129280
 Coulomb energy                             :      -141.30307203
 Exchange energy                            :       -10.38400666
 Correlation energy                         :        -0.42113077
 
 DOS at Fermi energy (states/Ha/cell)       :         1.19780708
 
 Electron charges :
     core                                   :         4.00000000
     core leakage                           :         0.00130665
     valence                                :         8.00000000
     interstitial                           :         4.73985877
     charge in muffin-tin spheres :
                  atom     1     C          :         3.63007061
                  atom     2     C          :         3.63007061
     total charge in muffin-tins            :         7.26014123
     total charge                           :        12.00000000
 
 Wall time (seconds)                        :      1775.53
 
 RMS change in effective potential (target) :  0.497138E-07  ( 0.100000E-05)
 Absolute change in total energy   (target) :  0.326651E-06  ( 0.100000E-06)
 Charge distance                   (target) :  0.794653E-07  ( 0.100000E-04)
 Abs. change in max-nonIBS-force   (target) :  0.835516E-06  ( 0.250000E-05)
 
++++++++++++++++++++++++++++++++++++++++++++++++++++++++++++++++++++++++++++++++
| SCF iteration number :   11                                                  +
++++++++++++++++++++++++++++++++++++++++++++++++++++++++++++++++++++++++++++++++
 Total energy                               :       -76.20691667
 _______________________________________________________________
 Fermi energy                               :         0.21455914
 Kinetic energy                             :        75.90129280
 Coulomb energy                             :      -141.30307204
 Exchange energy                            :       -10.38400666
 Correlation energy                         :        -0.42113077
 
 DOS at Fermi energy (states/Ha/cell)       :         1.19780712
 
 Electron charges :
     core                                   :         4.00000000
     core leakage                           :         0.00130665
     valence                                :         8.00000000
     interstitial                           :         4.73985877
     charge in muffin-tin spheres :
                  atom     1     C          :         3.63007061
                  atom     2     C          :         3.63007061
     total charge in muffin-tins            :         7.26014123
     total charge                           :        12.00000000
 
 Wall time (seconds)                        :      1952.74
 
 RMS change in effective potential (target) :  0.114650E-07  ( 0.100000E-05)
 Absolute change in total energy   (target) :  0.181617E-07  ( 0.100000E-06)
 Charge distance                   (target) :  0.279957E-07  ( 0.100000E-04)
 Abs. change in max-nonIBS-force   (target) :  0.439317E-06  ( 0.250000E-05)
 
++++++++++++++++++++++++++++++++++++++++++++++++++++++++++++++++++++++++++++++++
| Convergence targets achieved. Performing final SCF iteration                 +
++++++++++++++++++++++++++++++++++++++++++++++++++++++++++++++++++++++++++++++++
 Total energy                               :       -76.21525846
 _______________________________________________________________
 Fermi energy                               :         0.21455914
 Kinetic energy                             :        75.90129279
 Coulomb energy                             :      -141.30307204
 Exchange energy                            :       -10.38400666
 Correlation energy                         :        -0.42113077
 DFT-D2 dispersion correction               :        -0.00834178
 
 DOS at Fermi energy (states/Ha/cell)       :         1.19780711
 
 Electron charges :
     core                                   :         4.00000000
     core leakage                           :         0.00130665
     valence                                :         8.00000000
     interstitial                           :         4.73985877
     charge in muffin-tin spheres :
                  atom     1     C          :         3.63007062
                  atom     2     C          :         3.63007062
     total charge in muffin-tins            :         7.26014123
     total charge                           :        12.00000000
 
++++++++++++++++++++++++++++++++++++++++++++++++++++++++++++++++++++++++++++++++
| Self-consistent loop stopped                                                 +
++++++++++++++++++++++++++++++++++++++++++++++++++++++++++++++++++++++++++++++++
 STATE.OUT is written
 
--------------------------------------------------------------------------------
| Writing atomic positions and forces                                          -
--------------------------------------------------------------------------------
 
 Atomic positions (lattice) :
 atom     1   C  :     0.00000000    0.00000000    0.00000000
 atom     2   C  :     0.33333333    0.33333333    0.00000000
 
 Total atomic forces including IBS (cartesian) :
 atom     1   C  :     0.00000000    0.00183308    0.00000892
 atom     2   C  :     0.00000000   -0.00183308   -0.00000892
 
 Atomic force components including IBS (cartesian) :
 atom     1   C  :     0.00000000   -0.00070122   -0.00007714   HF force
                 :     0.00000000    0.00259721    0.00006632   core correction
                 :     0.00000000   -0.00001930    0.00002013   IBS correction
                 :     0.00000000   -0.00004360   -0.00000039   DFT-D2 force
 atom     2   C  :     0.00000000    0.00070122    0.00007714   HF force
                 :     0.00000000   -0.00259721   -0.00006632   core correction
                 :     0.00000000    0.00001930   -0.00002013   IBS correction
                 :     0.00000000    0.00004360    0.00000039   DFT-D2 force
 
********************************************************************************
| Groundstate module stopped                                                   *
********************************************************************************
 
********************************************************************************
| Structure-optimization module started                                        *
********************************************************************************
 Output level for this task is set to normal
 
 Maximum displacement tau_BFGS   is         :         0.3000
 Maximum displacement tau_newton is         :         0.8000
 
++++++++++++++++++++++++++++++++++++++++++++++++++++++++++++++++++++++++++++++++
| Use harmonic method for optimizing atomic positions                          +
++++++++++++++++++++++++++++++++++++++++++++++++++++++++++++++++++++++++++++++++
 
--------------------------------------------------------------------------------
| Optimization step 0: Initialize optimization                                 -
--------------------------------------------------------------------------------
 Maximum force magnitude           (target) :         0.00183311  (  0.00001000)
 Total energy at this optimization step     :       -76.21525846
 
 Atomic positions at this step (lattice) :
 atom     1   C  :     0.00000000    0.00000000    0.00000000
 atom     2   C  :     0.33333333    0.33333333    0.00000000
 
 Total atomic forces including IBS (cartesian) :
 atom     1   C  :     0.00000000    0.00183308    0.00000892
 atom     2   C  :     0.00000000   -0.00183308   -0.00000892
 
--------------------------------------------------------------------------------
| Optimization step    1    (method = harmonic)                                -
--------------------------------------------------------------------------------
 Number of scf iterations                   :        12  (full newton step)
 Maximum force magnitude           (target) :         0.00027907  (  0.00001000)
 Total energy at this optimization step     :       -76.21526171
 
 Atomic positions at this step (lattice) :
 atom     1   C  :     0.00000000    0.00000000    0.00000000
 atom     2   C  :     0.33297304    0.33297304    0.00000223
 
 Total atomic forces including IBS (cartesian) :
 atom     1   C  :     0.00000000    0.00027904   -0.00000391
 atom     2   C  :     0.00000000   -0.00027904    0.00000391
 
 Time spent in this optimization step       :      2269.68 seconds
 
--------------------------------------------------------------------------------
| Optimization step    2    (method = harmonic)                                -
--------------------------------------------------------------------------------
 Number of scf iterations                   :        11  (full harmonic step)
 Maximum force magnitude           (target) :         0.00000506  (  0.00001000)
 Total energy at this optimization step     :       -76.21526180
 
 Atomic positions at this step (lattice) :
 atom     1   C  :     0.00000000    0.00000000    0.00000000
 atom     2   C  :     0.33290833    0.33290833    0.00000368
 
 Total atomic forces including IBS (cartesian) :
 atom     1   C  :     0.00000000   -0.00000055   -0.00000503
 atom     2   C  :     0.00000000    0.00000055    0.00000503
 
 Time spent in this optimization step       :      2083.76 seconds
 
++++++++++++++++++++++++++++++++++++++++++++++++++++++++++++++++++++++++++++++++
| Force convergence target achieved                                            +
++++++++++++++++++++++++++++++++++++++++++++++++++++++++++++++++++++++++++++++++
 Total energy                               :       -76.21526180
 _______________________________________________________________
 Fermi energy                               :         0.21455958
 Kinetic energy                             :        75.90115291
 Coulomb energy                             :      -141.30295990
 Exchange energy                            :       -10.38398223
 Correlation energy                         :        -0.42113095
 DFT-D2 dispersion correction               :        -0.00834163
 
 DOS at Fermi energy (states/Ha/cell)       :         1.19692389
 
 Electron charges :
     core                                   :         4.00000000
     core leakage                           :         0.00130665
     valence                                :         8.00000000
     interstitial                           :         4.73992819
     charge in muffin-tin spheres :
                  atom     1     C          :         3.63003591
                  atom     2     C          :         3.63003591
     total charge in muffin-tins            :         7.26007181
     total charge                           :        12.00000000
 
 Optimized atomic positions (lattice) :
 atom     1   C  :     0.00000000    0.00000000    0.00000000
 atom     2   C  :     0.33290833    0.33290833    0.00000368
 
 Total atomic forces including IBS (cartesian) :
 atom     1   C  :     0.00000000   -0.00000055   -0.00000503
 atom     2   C  :     0.00000000    0.00000055    0.00000503
 
 Atomic force components including IBS (cartesian) :
 atom     1   C  :     0.00000000   -0.00254241   -0.00009200   HF force
                 :     0.00000000    0.00259361    0.00006749   core correction
                 :     0.00000000   -0.00000553    0.00001992   IBS correction
                 :     0.00000000   -0.00004623   -0.00000044   DFT-D2 force
 atom     2   C  :     0.00000000    0.00254241    0.00009200   HF force
                 :     0.00000000   -0.00259361   -0.00006749   core correction
                 :     0.00000000    0.00000553   -0.00001992   IBS correction
                 :     0.00000000    0.00004623    0.00000044   DFT-D2 force
 
********************************************************************************
| Structure-optimization module stopped                                        *
********************************************************************************
 
 Total time spent (seconds)                 :      6628.69
 
================================================================================
| EXCITING BORON stopped                                                       =
================================================================================
