================================================================================
| EXCITING BORON started                                                       =
| version hash id:                                                             =
| MPI version using     16 processor(s)                                        =
|                                                                              =
| Date (DD-MM-YYYY) : 09-08-2015                                               =
| Time (hh:mm:ss)   : 22:20:29                                                 =
|                                                                              =
| All units are atomic (Hartree, Bohr, etc.)                                   =
================================================================================
 
********************************************************************************
| Structural optimisation starting from atomic densities                       *
********************************************************************************
 
++++++++++++++++++++++++++++++++++++++++++++++++++++++++++++++++++++++++++++++++
| Starting initialization                                                      +
++++++++++++++++++++++++++++++++++++++++++++++++++++++++++++++++++++++++++++++++
 
 Lattice vectors (cartesian) :
      2.3270000000      4.0304822292      0.0000000000
     -2.3270000000      4.0304822292      0.0000000000
      0.0000000000      0.0000000000      6.3757674411
 
 Reciprocal lattice vectors (cartesian) :
      1.3500613036      0.7794582571      0.0000000000
     -1.3500613036      0.7794582571      0.0000000000
      0.0000000000      0.0000000000      0.9854790604
 
 Unit cell volume                           :     119.5957804353
 Brillouin zone volume                      :       2.0740716147
 
 Species :    1 (C)
     parameters loaded from                 :    C.xml
     name                                   :    carbon
     nuclear charge                         :      -6.00000000
     electronic charge                      :       6.00000000
     atomic mass                            :   21894.16673000
     muffin-tin radius                      :       1.20000000
     # of radial points in muffin-tin       :     250
 
     atomic positions (lattice) :
       1 :   0.00000000  0.00000000  0.00000000
       2 :   0.33333333  0.33333333  0.00000000
 
 Total number of atoms per unit cell        :       2
 
 Spin treatment                             :    spin-unpolarised
 
 Number of Bravais lattice symmetries       :      24
 Number of crystal symmetries               :      24
 
 k-point grid                               :      34   34   24
 Total number of k-points                   :    1482
 k-point set is reduced with crystal symmetries
 
 R^MT_min * |G+k|_max (rgkmax)              :       8.00000000
 Species with R^MT_min                      :       1 (C)
 Maximum |G+k| for APW functions            :       6.66666667
 Maximum |G| for potential and density      :      20.00000000
 
 G-vector grid sizes                        :      30    30    45
 Total number of G-vectors                  :   16127
 
 Maximum angular momentum used for
     APW functions                          :       8
     computing H and O matrix elements      :       8
     potential and density                  :       8
     inner part of muffin-tin               :       2
 
 Total nuclear charge                       :     -12.00000000
 Total electronic charge                    :      12.00000000
 Total core charge                          :       4.00000000
 Total valence charge                       :       8.00000000
 
 Number of empty states                     :       5
 Total number of valence states             :      10
 
 Maximum Hamiltonian size                   :     624
 Maximum number of plane-waves              :     616
 Total number of local-orbitals             :       8
 
 Exchange-correlation type                  :      20
     Perdew-Burke-Ernzerhof, Phys. Rev. Lett. 77, 3865 (1996)
     Generalised gradient approximation (GGA)
 
 Smearing scheme                            :    Gaussian
 Smearing width                             :       0.01000000
 
 Using multisecant Broyden potential mixing
 
++++++++++++++++++++++++++++++++++++++++++++++++++++++++++++++++++++++++++++++++
| Ending initialization                                                        +
++++++++++++++++++++++++++++++++++++++++++++++++++++++++++++++++++++++++++++++++
 
********************************************************************************
| Groundstate module started                                                   *
********************************************************************************
 Output level for this task is set to normal
 
++++++++++++++++++++++++++++++++++++++++++++++++++++++++++++++++++++++++++++++++
| Self-consistent loop started                                                 +
++++++++++++++++++++++++++++++++++++++++++++++++++++++++++++++++++++++++++++++++
 Density and potential initialised from atomic data
 
 
++++++++++++++++++++++++++++++++++++++++++++++++++++++++++++++++++++++++++++++++
| SCF iteration number :    1                                                  +
++++++++++++++++++++++++++++++++++++++++++++++++++++++++++++++++++++++++++++++++
 Total energy                               :       -78.30090560
 _______________________________________________________________
 Fermi energy                               :         0.17515964
 Kinetic energy                             :        74.55462475
 Coulomb energy                             :      -141.93451914
 Exchange energy                            :       -10.50158774
 Correlation energy                         :        -0.41942347
 
 DOS at Fermi energy (states/Ha/cell)       :         1.11872307
 
 Electron charges :
     core                                   :         4.00000000
     core leakage                           :         0.00128282
     valence                                :         8.00000000
     interstitial                           :         4.53639817
     charge in muffin-tin spheres :
                  atom     1     C          :         3.73180091
                  atom     2     C          :         3.73180091
     total charge in muffin-tins            :         7.46360183
     total charge                           :        12.00000000
 
 Wall time (seconds)                        :        35.23
 
++++++++++++++++++++++++++++++++++++++++++++++++++++++++++++++++++++++++++++++++
| SCF iteration number :    2                                                  +
++++++++++++++++++++++++++++++++++++++++++++++++++++++++++++++++++++++++++++++++
 Total energy                               :       -77.53286735
 _______________________________________________________________
 Fermi energy                               :         0.19619640
 Kinetic energy                             :        75.07076570
 Coulomb energy                             :      -141.71929573
 Exchange energy                            :       -10.46392433
 Correlation energy                         :        -0.42041298
 
 DOS at Fermi energy (states/Ha/cell)       :         1.20390738
 
 Electron charges :
     core                                   :         4.00000000
     core leakage                           :         0.00129516
     valence                                :         8.00000000
     interstitial                           :         4.59949300
     charge in muffin-tin spheres :
                  atom     1     C          :         3.70025350
                  atom     2     C          :         3.70025350
     total charge in muffin-tins            :         7.40050700
     total charge                           :        12.00000000
 
 Wall time (seconds)                        :        68.96
 
 RMS change in effective potential (target) :   1.60855      ( 0.100000E-05)
 Absolute change in total energy   (target) :  0.768038      ( 0.100000E-06)
 Charge distance                   (target) :  0.128264E-01  ( 0.100000E-04)
 Abs. change in max-nonIBS-force   (target) :   0.00000      ( 0.250000E-05)
 
++++++++++++++++++++++++++++++++++++++++++++++++++++++++++++++++++++++++++++++++
| SCF iteration number :    3                                                  +
++++++++++++++++++++++++++++++++++++++++++++++++++++++++++++++++++++++++++++++++
 Total energy                               :       -76.98901099
 _______________________________________________________________
 Fermi energy                               :         0.21055524
 Kinetic energy                             :        75.43317278
 Coulomb energy                             :      -141.56432343
 Exchange energy                            :       -10.43667341
 Correlation energy                         :        -0.42118694
 
 DOS at Fermi energy (states/Ha/cell)       :         1.27604720
 
 Electron charges :
     core                                   :         4.00000000
     core leakage                           :         0.00130312
     valence                                :         8.00000000
     interstitial                           :         4.64547077
     charge in muffin-tin spheres :
                  atom     1     C          :         3.67726462
                  atom     2     C          :         3.67726462
     total charge in muffin-tins            :         7.35452923
     total charge                           :        12.00000000
 
 Wall time (seconds)                        :       102.71
 
 RMS change in effective potential (target) :   1.18707      ( 0.100000E-05)
 Absolute change in total energy   (target) :  0.543856      ( 0.100000E-06)
 Charge distance                   (target) :  0.945601E-02  ( 0.100000E-04)
 Abs. change in max-nonIBS-force   (target) :   0.00000      ( 0.250000E-05)
 
++++++++++++++++++++++++++++++++++++++++++++++++++++++++++++++++++++++++++++++++
| SCF iteration number :    4                                                  +
++++++++++++++++++++++++++++++++++++++++++++++++++++++++++++++++++++++++++++++++
 Total energy                               :       -76.74200473
 _______________________________________________________________
 Fermi energy                               :         0.21643734
 Kinetic energy                             :        75.61220107
 Coulomb energy                             :      -141.51123315
 Exchange energy                            :       -10.42126736
 Correlation energy                         :        -0.42170529
 
 DOS at Fermi energy (states/Ha/cell)       :         1.32865499
 
 Electron charges :
     core                                   :         4.00000000
     core leakage                           :         0.00129555
     valence                                :         8.00000000
     interstitial                           :         4.67596118
     charge in muffin-tin spheres :
                  atom     1     C          :         3.66201941
                  atom     2     C          :         3.66201941
     total charge in muffin-tins            :         7.32403882
     total charge                           :        12.00000000
 
 Wall time (seconds)                        :       136.40
 
 RMS change in effective potential (target) :  0.666512E-01  ( 0.100000E-05)
 Absolute change in total energy   (target) :  0.247006      ( 0.100000E-06)
 Charge distance                   (target) :  0.680078E-02  ( 0.100000E-04)
 Abs. change in max-nonIBS-force   (target) :   0.00000      ( 0.250000E-05)
 
++++++++++++++++++++++++++++++++++++++++++++++++++++++++++++++++++++++++++++++++
| SCF iteration number :    5                                                  +
++++++++++++++++++++++++++++++++++++++++++++++++++++++++++++++++++++++++++++++++
 Total energy                               :       -75.94448233
 _______________________________________________________________
 Fermi energy                               :         0.23654125
 Kinetic energy                             :        76.12035902
 Coulomb energy                             :      -141.25959908
 Exchange energy                            :       -10.38235404
 Correlation energy                         :        -0.42288823
 
 DOS at Fermi energy (states/Ha/cell)       :         1.45077842
 
 Electron charges :
     core                                   :         4.00000000
     core leakage                           :         0.00131514
     valence                                :         8.00000000
     interstitial                           :         4.73884399
     charge in muffin-tin spheres :
                  atom     1     C          :         3.63057800
                  atom     2     C          :         3.63057800
     total charge in muffin-tins            :         7.26115601
     total charge                           :        12.00000000
 
 Wall time (seconds)                        :       169.96
 
 RMS change in effective potential (target) :  0.330332E-01  ( 0.100000E-05)
 Absolute change in total energy   (target) :  0.797522      ( 0.100000E-06)
 Charge distance                   (target) :  0.127816E-01  ( 0.100000E-04)
 Abs. change in max-nonIBS-force   (target) :   0.00000      ( 0.250000E-05)
 
++++++++++++++++++++++++++++++++++++++++++++++++++++++++++++++++++++++++++++++++
| SCF iteration number :    6                                                  +
++++++++++++++++++++++++++++++++++++++++++++++++++++++++++++++++++++++++++++++++
 Total energy                               :       -76.20486878
 _______________________________________________________________
 Fermi energy                               :         0.23012906
 Kinetic energy                             :        75.95494158
 Coulomb energy                             :      -141.34212180
 Exchange energy                            :       -10.39519567
 Correlation energy                         :        -0.42249288
 
 DOS at Fermi energy (states/Ha/cell)       :         1.40775722
 
 Electron charges :
     core                                   :         4.00000000
     core leakage                           :         0.00130895
     valence                                :         8.00000000
     interstitial                           :         4.71803812
     charge in muffin-tin spheres :
                  atom     1     C          :         3.64098094
                  atom     2     C          :         3.64098094
     total charge in muffin-tins            :         7.28196188
     total charge                           :        12.00000000
 
 Wall time (seconds)                        :       203.61
 
 RMS change in effective potential (target) :  0.656797E-03  ( 0.100000E-05)
 Absolute change in total energy   (target) :  0.260386      ( 0.100000E-06)
 Charge distance                   (target) :  0.426600E-02  ( 0.100000E-04)
 Abs. change in max-nonIBS-force   (target) :   0.00000      ( 0.250000E-05)
 
++++++++++++++++++++++++++++++++++++++++++++++++++++++++++++++++++++++++++++++++
| SCF iteration number :    7                                                  +
++++++++++++++++++++++++++++++++++++++++++++++++++++++++++++++++++++++++++++++++
 Total energy                               :       -76.20589089
 _______________________________________________________________
 Fermi energy                               :         0.23009681
 Kinetic energy                             :        75.95456503
 Coulomb energy                             :      -141.34272704
 Exchange energy                            :       -10.39523879
 Correlation energy                         :        -0.42249009
 
 DOS at Fermi energy (states/Ha/cell)       :         1.40787377
 
 Electron charges :
     core                                   :         4.00000000
     core leakage                           :         0.00130884
     valence                                :         8.00000000
     interstitial                           :         4.71798336
     charge in muffin-tin spheres :
                  atom     1     C          :         3.64100832
                  atom     2     C          :         3.64100832
     total charge in muffin-tins            :         7.28201664
     total charge                           :        12.00000000
 
 Wall time (seconds)                        :       237.25
 
 RMS change in effective potential (target) :  0.161560E-03  ( 0.100000E-05)
 Absolute change in total energy   (target) :  0.102212E-02  ( 0.100000E-06)
 Charge distance                   (target) :  0.189314E-04  ( 0.100000E-04)
 Abs. change in max-nonIBS-force   (target) :   0.00000      ( 0.250000E-05)
 
++++++++++++++++++++++++++++++++++++++++++++++++++++++++++++++++++++++++++++++++
| SCF iteration number :    8                                                  +
++++++++++++++++++++++++++++++++++++++++++++++++++++++++++++++++++++++++++++++++
 Total energy                               :       -76.20655324
 _______________________________________________________________
 Fermi energy                               :         0.23008002
 Kinetic energy                             :        75.95406821
 Coulomb energy                             :      -141.34286241
 Exchange energy                            :       -10.39526964
 Correlation energy                         :        -0.42248940
 
 DOS at Fermi energy (states/Ha/cell)       :         1.40772929
 
 Electron charges :
     core                                   :         4.00000000
     core leakage                           :         0.00130884
     valence                                :         8.00000000
     interstitial                           :         4.71792959
     charge in muffin-tin spheres :
                  atom     1     C          :         3.64103520
                  atom     2     C          :         3.64103520
     total charge in muffin-tins            :         7.28207041
     total charge                           :        12.00000000
 
 Wall time (seconds)                        :       271.35
 
 RMS change in effective potential (target) :  0.257431E-04  ( 0.100000E-05)
 Absolute change in total energy   (target) :  0.662350E-03  ( 0.100000E-06)
 Charge distance                   (target) :  0.128393E-04  ( 0.100000E-04)
 Abs. change in max-nonIBS-force   (target) :   0.00000      ( 0.250000E-05)
 
++++++++++++++++++++++++++++++++++++++++++++++++++++++++++++++++++++++++++++++++
| SCF iteration number :    9                                                  +
++++++++++++++++++++++++++++++++++++++++++++++++++++++++++++++++++++++++++++++++
 Total energy                               :       -76.20644167
 _______________________________________________________________
 Fermi energy                               :         0.23008270
 Kinetic energy                             :        75.95413498
 Coulomb energy                             :      -141.34282292
 Exchange energy                            :       -10.39526414
 Correlation energy                         :        -0.42248958
 
 DOS at Fermi energy (states/Ha/cell)       :         1.40774427
 
 Electron charges :
     core                                   :         4.00000000
     core leakage                           :         0.00130884
     valence                                :         8.00000000
     interstitial                           :         4.71793824
     charge in muffin-tin spheres :
                  atom     1     C          :         3.64103088
                  atom     2     C          :         3.64103088
     total charge in muffin-tins            :         7.28206176
     total charge                           :        12.00000000
 
 Wall time (seconds)                        :       305.11
 
 RMS change in effective potential (target) :  0.145272E-05  ( 0.100000E-05)
 Absolute change in total energy   (target) :  0.111574E-03  ( 0.100000E-06)
 Charge distance                   (target) :  0.170455E-05  ( 0.100000E-04)
 Abs. change in max-nonIBS-force   (target) :   0.00000      ( 0.250000E-05)
 
++++++++++++++++++++++++++++++++++++++++++++++++++++++++++++++++++++++++++++++++
| SCF iteration number :   10                                                  +
++++++++++++++++++++++++++++++++++++++++++++++++++++++++++++++++++++++++++++++++
 Total energy                               :       -76.20644191
 _______________________________________________________________
 Fermi energy                               :         0.23008271
 Kinetic energy                             :        75.95413527
 Coulomb energy                             :      -141.34282343
 Exchange energy                            :       -10.39526417
 Correlation energy                         :        -0.42248958
 
 DOS at Fermi energy (states/Ha/cell)       :         1.40774438
 
 Electron charges :
     core                                   :         4.00000000
     core leakage                           :         0.00130884
     valence                                :         8.00000000
     interstitial                           :         4.71793823
     charge in muffin-tin spheres :
                  atom     1     C          :         3.64103089
                  atom     2     C          :         3.64103089
     total charge in muffin-tins            :         7.28206177
     total charge                           :        12.00000000
 
 Wall time (seconds)                        :       338.92
 
 RMS change in effective potential (target) :  0.566990E-07  ( 0.100000E-05)
 Absolute change in total energy   (target) :  0.240857E-06  ( 0.100000E-06)
 Charge distance                   (target) :  0.137155E-07  ( 0.100000E-04)
 Abs. change in max-nonIBS-force   (target) :   0.00000      ( 0.250000E-05)
 
++++++++++++++++++++++++++++++++++++++++++++++++++++++++++++++++++++++++++++++++
| SCF iteration number :   11                                                  +
++++++++++++++++++++++++++++++++++++++++++++++++++++++++++++++++++++++++++++++++
 Total energy                               :       -76.20644190
 _______________________________________________________________
 Fermi energy                               :         0.23008271
 Kinetic energy                             :        75.95413528
 Coulomb energy                             :      -141.34282344
 Exchange energy                            :       -10.39526417
 Correlation energy                         :        -0.42248958
 
 DOS at Fermi energy (states/Ha/cell)       :         1.40774439
 
 Electron charges :
     core                                   :         4.00000000
     core leakage                           :         0.00130884
     valence                                :         8.00000000
     interstitial                           :         4.71793823
     charge in muffin-tin spheres :
                  atom     1     C          :         3.64103089
                  atom     2     C          :         3.64103089
     total charge in muffin-tins            :         7.28206177
     total charge                           :        12.00000000
 
 Wall time (seconds)                        :       372.43
 
 RMS change in effective potential (target) :  0.240738E-07  ( 0.100000E-05)
 Absolute change in total energy   (target) :  0.413675E-08  ( 0.100000E-06)
 Charge distance                   (target) :  0.104166E-08  ( 0.100000E-04)
 Abs. change in max-nonIBS-force   (target) :   0.00000      ( 0.250000E-05)
 
++++++++++++++++++++++++++++++++++++++++++++++++++++++++++++++++++++++++++++++++
| Convergence targets achieved. Performing final SCF iteration                 +
++++++++++++++++++++++++++++++++++++++++++++++++++++++++++++++++++++++++++++++++
 Total energy                               :       -76.21538920
 _______________________________________________________________
 Fermi energy                               :         0.23008271
 Kinetic energy                             :        75.95413529
 Coulomb energy                             :      -141.34282343
 Exchange energy                            :       -10.39526417
 Correlation energy                         :        -0.42248958
 DFT-D2 dispersion correction               :        -0.00894731
 
 DOS at Fermi energy (states/Ha/cell)       :         1.40774439
 
 Electron charges :
     core                                   :         4.00000000
     core leakage                           :         0.00130884
     valence                                :         8.00000000
     interstitial                           :         4.71793823
     charge in muffin-tin spheres :
                  atom     1     C          :         3.64103089
                  atom     2     C          :         3.64103089
     total charge in muffin-tins            :         7.28206177
     total charge                           :        12.00000000
 
++++++++++++++++++++++++++++++++++++++++++++++++++++++++++++++++++++++++++++++++
| Self-consistent loop stopped                                                 +
++++++++++++++++++++++++++++++++++++++++++++++++++++++++++++++++++++++++++++++++
 STATE.OUT is written
 
--------------------------------------------------------------------------------
| Writing atomic positions and forces                                          -
--------------------------------------------------------------------------------
 
 Atomic positions (lattice) :
 atom     1   C  :     0.00000000    0.00000000    0.00000000
 atom     2   C  :     0.33333333    0.33333333    0.00000000
 
 Total atomic forces including IBS (cartesian) :
 atom     1   C  :     0.00000000    0.00000000    0.00000000
 atom     2   C  :     0.00000000    0.00000000    0.00000000
 
 Atomic force components including IBS (cartesian) :
 atom     1   C  :     0.00000000    0.00000000    0.00000000   HF force
                 :     0.00000000    0.00000000    0.00000000   core correction
                 :     0.00000000    0.00000000    0.00000000   IBS correction
                 :     0.00000000    0.00000000    0.00000000   DFT-D2 force
 atom     2   C  :     0.00000000    0.00000000    0.00000000   HF force
                 :     0.00000000    0.00000000    0.00000000   core correction
                 :     0.00000000    0.00000000    0.00000000   IBS correction
                 :     0.00000000    0.00000000    0.00000000   DFT-D2 force
 
********************************************************************************
| Groundstate module stopped                                                   *
********************************************************************************
 
********************************************************************************
| Structure-optimization module started                                        *
********************************************************************************
 Output level for this task is set to normal
 
 Maximum displacement tau_BFGS   is         :         0.3000
 Maximum displacement tau_newton is         :         0.8000
 Maximum force target reached already at the initial configuration
 
********************************************************************************
| Structure-optimization module stopped                                        *
********************************************************************************
 
 Total time spent (seconds)                 :       433.19
 
================================================================================
| EXCITING BORON stopped                                                       =
================================================================================
