                                                                                      
                                       ``:oss/                                        
                           `.+s+.     .+ys--yh+     `./ss+.                           
                          -sh//yy+`   +yy   +yy    -+h+-oyy                           
                          -yh- .oyy/.-sh.   .syo-.:sy-  /yh                           
                 `.-.`    `yh+   -oyyyo.     `/syys:    oys      `.`                  
               `/+ssys+-` `sh+      `                   oys`   .:osyo`                
               -yh- ./syyooyo`                          .sys+/oyo--yh/                
               `yy+    .-:-.                             `-/+/:`  -sh-                
                /yh.                                              oys                 
          ``..---hho---------`   .---------..`      `.-----.`    -hd+---.             
       `./osmNMMMMMMMMMMMMMMMs. +NNMMMMMMMMNNmh+.   yNMMMMMNm-  oNMMMMMNmo++:`        
       +sy--/sdMMMhyyyyyyyNMMh- .oyNMMmyyyyyhNMMm+` -yMMMdyyo:` .oyyNMMNhs+syy`       
       -yy/   /MMM+.`-+/``mMMy-   `mMMh:`````.dMMN:` `MMMy-`-dhhy```mMMy:``+hs        
        -yy+` /MMMo:-mMM+`-oo/.    mMMh:     `dMMN/`  dMMm:`dMMMMy..MMMo-.+yo`        
         .sys`/MMMMNNMMMs-         mMMmyooooymMMNo:   oMMM/sMMMMMM++MMN//oh:          
          `sh+/MMMhyyMMMs- `-`     mMMMMMMMMMNmy+-`   -MMMhMMMsmMMmdMMd/yy+           
    `-/+++oyy-/MMM+.`/hh/.`mNm:`   mMMd+/////:-.`      NMMMMMd/:NMMMMMy:/yyo/:.`      
   +os+//:-..-oMMMo:--:::-/MMMo. .-mMMd+---`           hMMMMN+. oMMMMMo. `-+osyso:`   
   syo     `mNMMMMMNNNNNNNNMMMo.oNNMMMMMNNNN:`         +MMMMs:`  dMMMN/`     ``:syo   
   /yh`     :syyyyyyyyyyyyyyyy+.`+syyyyyyyyo:`         .oyys:`   .oyys:`        +yh   
   -yh-        ````````````````    `````````              ``        ``          oys   
   -+h/------------------------::::::::://////++++++++++++++++++++++///////::::/yd:   
   shdddddddddddddddddddddddddddddhhhhhhhhyyyyyssssssssssssssssyyyyyyyhhhhhhhddddh`   
                                                                                      
  S. Ponce, E. R. Margine, C. Verdi, and F. Giustino,                                 
                                                Comput. Phys. Commun. 209, 116 (2016) 
                                                                                      

     Program EPW v.5.4.1 starts on  2Jun2022 at  8: 3:57 

     This program is part of the open-source Quantum ESPRESSO suite
     for quantum simulation of materials; please cite
         "P. Giannozzi et al., J. Phys.:Condens. Matter 21 395502 (2009);
         "P. Giannozzi et al., J. Phys.:Condens. Matter 29 465901 (2017);
         "P. Giannozzi et al., J. Chem. Phys. 152 154105 (2020);
          URL http://www.quantum-espresso.org", 
     in publications or presentations arising from this work. More details at
     http://www.quantum-espresso.org/quote

     Parallel version (MPI), running on    72 processors

     MPI processes distributed on     6 nodes
     K-points division:     npool     =      72
     122580 MiB available memory on the printing compute node when the environment starts
 
     Reading input from epw.in
      Title line not specified: using 'default'.

     Reading supplied temperature list.

     Reading xml data from directory:

     ./Ti3AlC2.save/
     file Al.pbe-n-kjpaw_psl.1.0.0.UPF: wavefunction(s)  3S 3P renormalized
     file C.pbe-n-kjpaw_psl.1.0.0.UPF: wavefunction(s)  2S 2P renormalized

     IMPORTANT: XC functional enforced from input :
     Exchange-correlation= PBE
                           (   1   4   3   4   0   0   0)
     Any further DFT definition will be discarded
     Please, verify this is what you really want

 
     G-vector sticks info
     --------------------
     sticks:   dense  smooth     PW     G-vecs:    dense   smooth      PW
     Sum        1027     511    211               161197    56993   14595
 
     Using Slab Decomposition
 

     Check: negative core charge=   -0.000003

     negative rho (up, down):  5.749E-03 0.000E+00
     Reading collected, re-writing distributed wavefunctions

     default                                                                    

     bravais-lattice index     =            4
     lattice parameter (a_0)   =       5.8177  a.u.
     unit-cell volume          =    1033.7393 (a.u.)^3
     number of atoms/cell      =           12
     number of atomic types    =            3
     kinetic-energy cut-off    =      55.0000  Ry
     charge density cut-off    =     440.0000  Ry
     Exchange-correlation= PBE
                           (   1   4   3   4   0   0   0)


     celldm(1)=    5.81769  celldm(2)=    0.00000  celldm(3)=    6.06216
     celldm(4)=    0.00000  celldm(5)=    0.00000  celldm(6)=    0.00000

     crystal axes: (cart. coord. in units of a_0)
               a(1) = (  1.0000  0.0000  0.0000 )  
               a(2) = ( -0.5000  0.8660  0.0000 )  
               a(3) = (  0.0000  0.0000  6.0622 )  

     reciprocal axes: (cart. coord. in units 2 pi/a_0)
               b(1) = (  1.0000  0.5774  0.0000 )  
               b(2) = (  0.0000  1.1547  0.0000 )  
               b(3) = (  0.0000  0.0000  0.1650 )  


     Atoms inside the unit cell: 

   Cartesian axes

     site n.  atom      mass           positions (a_0 units)
        1        Ti  47.8670   tau( 1) = (    0.50000    0.28868    0.76941  )
        2        Ti  47.8670   tau( 2) = (   -0.00000    0.57735    3.80049  )
        3        Ti  47.8670   tau( 3) = (   -0.00000    0.57735    5.29276  )
        4        Ti  47.8670   tau( 4) = (    0.50000    0.28868    2.26167  )
        5        Ti  47.8670   tau( 5) = (    0.00000    0.00000    0.00000  )
        6        Ti  47.8670   tau( 6) = (    0.00000    0.00000    3.03108  )
        7        Al  26.9815   tau( 7) = (    0.00000    0.00000    1.51554  )
        8        Al  26.9815   tau( 8) = (    0.00000    0.00000    4.54662  )
        9        C   12.0110   tau( 9) = (    0.50000    0.28868    5.64192  )
       10        C   12.0110   tau(10) = (   -0.00000    0.57735    2.61084  )
       11        C   12.0110   tau(11) = (   -0.00000    0.57735    0.42024  )
       12        C   12.0110   tau(12) = (    0.50000    0.28868    3.45132  )
 
     25 Sym.Ops. (with q -> -q+G )


     G cutoff =  377.2201  ( 161197 G-vectors)     FFT grid: ( 40, 40,240)
     G cutoff =  188.6100  (  56993 G-vectors)  smooth grid: ( 27, 27, 27)
     number of k points=  784  gaussian broad. (Ry)=  0.0040     ngauss =   1
                       cart. coord. in units 2pi/a_0
        k(    1) = (   0.0000000   0.0000000   0.0000000), wk =   0.0025510
        k(    2) = (   0.0000000   0.0000000   0.0412394), wk =   0.0025510
        k(    3) = (   0.0000000   0.0000000   0.0824788), wk =   0.0025510
        k(    4) = (   0.0000000   0.0000000   0.1237182), wk =   0.0025510
        k(    5) = (   0.0000000   0.0824786   0.0000000), wk =   0.0025510
        k(    6) = (   0.0000000   0.0824786   0.0412394), wk =   0.0025510
        k(    7) = (   0.0000000   0.0824786   0.0824788), wk =   0.0025510
        k(    8) = (   0.0000000   0.0824786   0.1237182), wk =   0.0025510
        k(    9) = (   0.0000000   0.1649572   0.0000000), wk =   0.0025510
        k(   10) = (   0.0000000   0.1649572   0.0412394), wk =   0.0025510
        k(   11) = (   0.0000000   0.1649572   0.0824788), wk =   0.0025510
        k(   12) = (   0.0000000   0.1649572   0.1237182), wk =   0.0025510
        k(   13) = (   0.0000000   0.2474358   0.0000000), wk =   0.0025510
        k(   14) = (   0.0000000   0.2474358   0.0412394), wk =   0.0025510
        k(   15) = (   0.0000000   0.2474358   0.0824788), wk =   0.0025510
        k(   16) = (   0.0000000   0.2474358   0.1237182), wk =   0.0025510
        k(   17) = (   0.0000000   0.3299144   0.0000000), wk =   0.0025510
        k(   18) = (   0.0000000   0.3299144   0.0412394), wk =   0.0025510
        k(   19) = (   0.0000000   0.3299144   0.0824788), wk =   0.0025510
        k(   20) = (   0.0000000   0.3299144   0.1237182), wk =   0.0025510
        k(   21) = (   0.0000000   0.4123930   0.0000000), wk =   0.0025510
        k(   22) = (   0.0000000   0.4123930   0.0412394), wk =   0.0025510
        k(   23) = (   0.0000000   0.4123930   0.0824788), wk =   0.0025510
        k(   24) = (   0.0000000   0.4123930   0.1237182), wk =   0.0025510
        k(   25) = (   0.0000000   0.4948717   0.0000000), wk =   0.0025510
        k(   26) = (   0.0000000   0.4948717   0.0412394), wk =   0.0025510
        k(   27) = (   0.0000000   0.4948717   0.0824788), wk =   0.0025510
        k(   28) = (   0.0000000   0.4948717   0.1237182), wk =   0.0025510
        k(   29) = (   0.0000000   0.5773503   0.0000000), wk =   0.0025510
        k(   30) = (   0.0000000   0.5773503   0.0412394), wk =   0.0025510
        k(   31) = (   0.0000000   0.5773503   0.0824788), wk =   0.0025510
        k(   32) = (   0.0000000   0.5773503   0.1237182), wk =   0.0025510
        k(   33) = (   0.0000000   0.6598289   0.0000000), wk =   0.0025510
        k(   34) = (   0.0000000   0.6598289   0.0412394), wk =   0.0025510
        k(   35) = (   0.0000000   0.6598289   0.0824788), wk =   0.0025510
        k(   36) = (   0.0000000   0.6598289   0.1237182), wk =   0.0025510
        k(   37) = (   0.0000000   0.7423075   0.0000000), wk =   0.0025510
        k(   38) = (   0.0000000   0.7423075   0.0412394), wk =   0.0025510
        k(   39) = (   0.0000000   0.7423075   0.0824788), wk =   0.0025510
        k(   40) = (   0.0000000   0.7423075   0.1237182), wk =   0.0025510
        k(   41) = (   0.0000000   0.8247861   0.0000000), wk =   0.0025510
        k(   42) = (   0.0000000   0.8247861   0.0412394), wk =   0.0025510
        k(   43) = (   0.0000000   0.8247861   0.0824788), wk =   0.0025510
        k(   44) = (   0.0000000   0.8247861   0.1237182), wk =   0.0025510
        k(   45) = (   0.0000000   0.9072647   0.0000000), wk =   0.0025510
        k(   46) = (   0.0000000   0.9072647   0.0412394), wk =   0.0025510
        k(   47) = (   0.0000000   0.9072647   0.0824788), wk =   0.0025510
        k(   48) = (   0.0000000   0.9072647   0.1237182), wk =   0.0025510
        k(   49) = (   0.0000000   0.9897433   0.0000000), wk =   0.0025510
        k(   50) = (   0.0000000   0.9897433   0.0412394), wk =   0.0025510
        k(   51) = (   0.0000000   0.9897433   0.0824788), wk =   0.0025510
        k(   52) = (   0.0000000   0.9897433   0.1237182), wk =   0.0025510
        k(   53) = (   0.0000000   1.0722219   0.0000000), wk =   0.0025510
        k(   54) = (   0.0000000   1.0722219   0.0412394), wk =   0.0025510
        k(   55) = (   0.0000000   1.0722219   0.0824788), wk =   0.0025510
        k(   56) = (   0.0000000   1.0722219   0.1237182), wk =   0.0025510
        k(   57) = (   0.0714286   0.0412393   0.0000000), wk =   0.0025510
        k(   58) = (   0.0714286   0.0412393   0.0412394), wk =   0.0025510
        k(   59) = (   0.0714286   0.0412393   0.0824788), wk =   0.0025510
        k(   60) = (   0.0714286   0.0412393   0.1237182), wk =   0.0025510
        k(   61) = (   0.0714286   0.1237179   0.0000000), wk =   0.0025510
        k(   62) = (   0.0714286   0.1237179   0.0412394), wk =   0.0025510
        k(   63) = (   0.0714286   0.1237179   0.0824788), wk =   0.0025510
        k(   64) = (   0.0714286   0.1237179   0.1237182), wk =   0.0025510
        k(   65) = (   0.0714286   0.2061965   0.0000000), wk =   0.0025510
        k(   66) = (   0.0714286   0.2061965   0.0412394), wk =   0.0025510
        k(   67) = (   0.0714286   0.2061965   0.0824788), wk =   0.0025510
        k(   68) = (   0.0714286   0.2061965   0.1237182), wk =   0.0025510
        k(   69) = (   0.0714286   0.2886751   0.0000000), wk =   0.0025510
        k(   70) = (   0.0714286   0.2886751   0.0412394), wk =   0.0025510
        k(   71) = (   0.0714286   0.2886751   0.0824788), wk =   0.0025510
        k(   72) = (   0.0714286   0.2886751   0.1237182), wk =   0.0025510
        k(   73) = (   0.0714286   0.3711537   0.0000000), wk =   0.0025510
        k(   74) = (   0.0714286   0.3711537   0.0412394), wk =   0.0025510
        k(   75) = (   0.0714286   0.3711537   0.0824788), wk =   0.0025510
        k(   76) = (   0.0714286   0.3711537   0.1237182), wk =   0.0025510
        k(   77) = (   0.0714286   0.4536324   0.0000000), wk =   0.0025510
        k(   78) = (   0.0714286   0.4536324   0.0412394), wk =   0.0025510
        k(   79) = (   0.0714286   0.4536324   0.0824788), wk =   0.0025510
        k(   80) = (   0.0714286   0.4536324   0.1237182), wk =   0.0025510
        k(   81) = (   0.0714286   0.5361110   0.0000000), wk =   0.0025510
        k(   82) = (   0.0714286   0.5361110   0.0412394), wk =   0.0025510
        k(   83) = (   0.0714286   0.5361110   0.0824788), wk =   0.0025510
        k(   84) = (   0.0714286   0.5361110   0.1237182), wk =   0.0025510
        k(   85) = (   0.0714286   0.6185896   0.0000000), wk =   0.0025510
        k(   86) = (   0.0714286   0.6185896   0.0412394), wk =   0.0025510
        k(   87) = (   0.0714286   0.6185896   0.0824788), wk =   0.0025510
        k(   88) = (   0.0714286   0.6185896   0.1237182), wk =   0.0025510
        k(   89) = (   0.0714286   0.7010682   0.0000000), wk =   0.0025510
        k(   90) = (   0.0714286   0.7010682   0.0412394), wk =   0.0025510
        k(   91) = (   0.0714286   0.7010682   0.0824788), wk =   0.0025510
        k(   92) = (   0.0714286   0.7010682   0.1237182), wk =   0.0025510
        k(   93) = (   0.0714286   0.7835468   0.0000000), wk =   0.0025510
        k(   94) = (   0.0714286   0.7835468   0.0412394), wk =   0.0025510
        k(   95) = (   0.0714286   0.7835468   0.0824788), wk =   0.0025510
        k(   96) = (   0.0714286   0.7835468   0.1237182), wk =   0.0025510
        k(   97) = (   0.0714286   0.8660254   0.0000000), wk =   0.0025510
        k(   98) = (   0.0714286   0.8660254   0.0412394), wk =   0.0025510
        k(   99) = (   0.0714286   0.8660254   0.0824788), wk =   0.0025510
        k(  100) = (   0.0714286   0.8660254   0.1237182), wk =   0.0025510
        k(  101) = (   0.0714286   0.9485040   0.0000000), wk =   0.0025510
        k(  102) = (   0.0714286   0.9485040   0.0412394), wk =   0.0025510
        k(  103) = (   0.0714286   0.9485040   0.0824788), wk =   0.0025510
        k(  104) = (   0.0714286   0.9485040   0.1237182), wk =   0.0025510
        k(  105) = (   0.0714286   1.0309826   0.0000000), wk =   0.0025510
        k(  106) = (   0.0714286   1.0309826   0.0412394), wk =   0.0025510
        k(  107) = (   0.0714286   1.0309826   0.0824788), wk =   0.0025510
        k(  108) = (   0.0714286   1.0309826   0.1237182), wk =   0.0025510
        k(  109) = (   0.0714286   1.1134612   0.0000000), wk =   0.0025510
        k(  110) = (   0.0714286   1.1134612   0.0412394), wk =   0.0025510
        k(  111) = (   0.0714286   1.1134612   0.0824788), wk =   0.0025510
        k(  112) = (   0.0714286   1.1134612   0.1237182), wk =   0.0025510
        k(  113) = (   0.1428571   0.0824786   0.0000000), wk =   0.0025510
        k(  114) = (   0.1428571   0.0824786   0.0412394), wk =   0.0025510
        k(  115) = (   0.1428571   0.0824786   0.0824788), wk =   0.0025510
        k(  116) = (   0.1428571   0.0824786   0.1237182), wk =   0.0025510
        k(  117) = (   0.1428571   0.1649572   0.0000000), wk =   0.0025510
        k(  118) = (   0.1428571   0.1649572   0.0412394), wk =   0.0025510
        k(  119) = (   0.1428571   0.1649572   0.0824788), wk =   0.0025510
        k(  120) = (   0.1428571   0.1649572   0.1237182), wk =   0.0025510
        k(  121) = (   0.1428571   0.2474358   0.0000000), wk =   0.0025510
        k(  122) = (   0.1428571   0.2474358   0.0412394), wk =   0.0025510
        k(  123) = (   0.1428571   0.2474358   0.0824788), wk =   0.0025510
        k(  124) = (   0.1428571   0.2474358   0.1237182), wk =   0.0025510
        k(  125) = (   0.1428571   0.3299144   0.0000000), wk =   0.0025510
        k(  126) = (   0.1428571   0.3299144   0.0412394), wk =   0.0025510
        k(  127) = (   0.1428571   0.3299144   0.0824788), wk =   0.0025510
        k(  128) = (   0.1428571   0.3299144   0.1237182), wk =   0.0025510
        k(  129) = (   0.1428571   0.4123930   0.0000000), wk =   0.0025510
        k(  130) = (   0.1428571   0.4123930   0.0412394), wk =   0.0025510
        k(  131) = (   0.1428571   0.4123930   0.0824788), wk =   0.0025510
        k(  132) = (   0.1428571   0.4123930   0.1237182), wk =   0.0025510
        k(  133) = (   0.1428571   0.4948717   0.0000000), wk =   0.0025510
        k(  134) = (   0.1428571   0.4948717   0.0412394), wk =   0.0025510
        k(  135) = (   0.1428571   0.4948717   0.0824788), wk =   0.0025510
        k(  136) = (   0.1428571   0.4948717   0.1237182), wk =   0.0025510
        k(  137) = (   0.1428571   0.5773503   0.0000000), wk =   0.0025510
        k(  138) = (   0.1428571   0.5773503   0.0412394), wk =   0.0025510
        k(  139) = (   0.1428571   0.5773503   0.0824788), wk =   0.0025510
        k(  140) = (   0.1428571   0.5773503   0.1237182), wk =   0.0025510
        k(  141) = (   0.1428571   0.6598289   0.0000000), wk =   0.0025510
        k(  142) = (   0.1428571   0.6598289   0.0412394), wk =   0.0025510
        k(  143) = (   0.1428571   0.6598289   0.0824788), wk =   0.0025510
        k(  144) = (   0.1428571   0.6598289   0.1237182), wk =   0.0025510
        k(  145) = (   0.1428571   0.7423075   0.0000000), wk =   0.0025510
        k(  146) = (   0.1428571   0.7423075   0.0412394), wk =   0.0025510
        k(  147) = (   0.1428571   0.7423075   0.0824788), wk =   0.0025510
        k(  148) = (   0.1428571   0.7423075   0.1237182), wk =   0.0025510
        k(  149) = (   0.1428571   0.8247861   0.0000000), wk =   0.0025510
        k(  150) = (   0.1428571   0.8247861   0.0412394), wk =   0.0025510
        k(  151) = (   0.1428571   0.8247861   0.0824788), wk =   0.0025510
        k(  152) = (   0.1428571   0.8247861   0.1237182), wk =   0.0025510
        k(  153) = (   0.1428571   0.9072647   0.0000000), wk =   0.0025510
        k(  154) = (   0.1428571   0.9072647   0.0412394), wk =   0.0025510
        k(  155) = (   0.1428571   0.9072647   0.0824788), wk =   0.0025510
        k(  156) = (   0.1428571   0.9072647   0.1237182), wk =   0.0025510
        k(  157) = (   0.1428571   0.9897433   0.0000000), wk =   0.0025510
        k(  158) = (   0.1428571   0.9897433   0.0412394), wk =   0.0025510
        k(  159) = (   0.1428571   0.9897433   0.0824788), wk =   0.0025510
        k(  160) = (   0.1428571   0.9897433   0.1237182), wk =   0.0025510
        k(  161) = (   0.1428571   1.0722219   0.0000000), wk =   0.0025510
        k(  162) = (   0.1428571   1.0722219   0.0412394), wk =   0.0025510
        k(  163) = (   0.1428571   1.0722219   0.0824788), wk =   0.0025510
        k(  164) = (   0.1428571   1.0722219   0.1237182), wk =   0.0025510
        k(  165) = (   0.1428571   1.1547005   0.0000000), wk =   0.0025510
        k(  166) = (   0.1428571   1.1547005   0.0412394), wk =   0.0025510
        k(  167) = (   0.1428571   1.1547005   0.0824788), wk =   0.0025510
        k(  168) = (   0.1428571   1.1547005   0.1237182), wk =   0.0025510
        k(  169) = (   0.2142857   0.1237179   0.0000000), wk =   0.0025510
        k(  170) = (   0.2142857   0.1237179   0.0412394), wk =   0.0025510
        k(  171) = (   0.2142857   0.1237179   0.0824788), wk =   0.0025510
        k(  172) = (   0.2142857   0.1237179   0.1237182), wk =   0.0025510
        k(  173) = (   0.2142857   0.2061965   0.0000000), wk =   0.0025510
        k(  174) = (   0.2142857   0.2061965   0.0412394), wk =   0.0025510
        k(  175) = (   0.2142857   0.2061965   0.0824788), wk =   0.0025510
        k(  176) = (   0.2142857   0.2061965   0.1237182), wk =   0.0025510
        k(  177) = (   0.2142857   0.2886751   0.0000000), wk =   0.0025510
        k(  178) = (   0.2142857   0.2886751   0.0412394), wk =   0.0025510
        k(  179) = (   0.2142857   0.2886751   0.0824788), wk =   0.0025510
        k(  180) = (   0.2142857   0.2886751   0.1237182), wk =   0.0025510
        k(  181) = (   0.2142857   0.3711537   0.0000000), wk =   0.0025510
        k(  182) = (   0.2142857   0.3711537   0.0412394), wk =   0.0025510
        k(  183) = (   0.2142857   0.3711537   0.0824788), wk =   0.0025510
        k(  184) = (   0.2142857   0.3711537   0.1237182), wk =   0.0025510
        k(  185) = (   0.2142857   0.4536324   0.0000000), wk =   0.0025510
        k(  186) = (   0.2142857   0.4536324   0.0412394), wk =   0.0025510
        k(  187) = (   0.2142857   0.4536324   0.0824788), wk =   0.0025510
        k(  188) = (   0.2142857   0.4536324   0.1237182), wk =   0.0025510
        k(  189) = (   0.2142857   0.5361110   0.0000000), wk =   0.0025510
        k(  190) = (   0.2142857   0.5361110   0.0412394), wk =   0.0025510
        k(  191) = (   0.2142857   0.5361110   0.0824788), wk =   0.0025510
        k(  192) = (   0.2142857   0.5361110   0.1237182), wk =   0.0025510
        k(  193) = (   0.2142857   0.6185896   0.0000000), wk =   0.0025510
        k(  194) = (   0.2142857   0.6185896   0.0412394), wk =   0.0025510
        k(  195) = (   0.2142857   0.6185896   0.0824788), wk =   0.0025510
        k(  196) = (   0.2142857   0.6185896   0.1237182), wk =   0.0025510
        k(  197) = (   0.2142857   0.7010682   0.0000000), wk =   0.0025510
        k(  198) = (   0.2142857   0.7010682   0.0412394), wk =   0.0025510
        k(  199) = (   0.2142857   0.7010682   0.0824788), wk =   0.0025510
        k(  200) = (   0.2142857   0.7010682   0.1237182), wk =   0.0025510
        k(  201) = (   0.2142857   0.7835468   0.0000000), wk =   0.0025510
        k(  202) = (   0.2142857   0.7835468   0.0412394), wk =   0.0025510
        k(  203) = (   0.2142857   0.7835468   0.0824788), wk =   0.0025510
        k(  204) = (   0.2142857   0.7835468   0.1237182), wk =   0.0025510
        k(  205) = (   0.2142857   0.8660254   0.0000000), wk =   0.0025510
        k(  206) = (   0.2142857   0.8660254   0.0412394), wk =   0.0025510
        k(  207) = (   0.2142857   0.8660254   0.0824788), wk =   0.0025510
        k(  208) = (   0.2142857   0.8660254   0.1237182), wk =   0.0025510
        k(  209) = (   0.2142857   0.9485040   0.0000000), wk =   0.0025510
        k(  210) = (   0.2142857   0.9485040   0.0412394), wk =   0.0025510
        k(  211) = (   0.2142857   0.9485040   0.0824788), wk =   0.0025510
        k(  212) = (   0.2142857   0.9485040   0.1237182), wk =   0.0025510
        k(  213) = (   0.2142857   1.0309826   0.0000000), wk =   0.0025510
        k(  214) = (   0.2142857   1.0309826   0.0412394), wk =   0.0025510
        k(  215) = (   0.2142857   1.0309826   0.0824788), wk =   0.0025510
        k(  216) = (   0.2142857   1.0309826   0.1237182), wk =   0.0025510
        k(  217) = (   0.2142857   1.1134612   0.0000000), wk =   0.0025510
        k(  218) = (   0.2142857   1.1134612   0.0412394), wk =   0.0025510
        k(  219) = (   0.2142857   1.1134612   0.0824788), wk =   0.0025510
        k(  220) = (   0.2142857   1.1134612   0.1237182), wk =   0.0025510
        k(  221) = (   0.2142857   1.1959398   0.0000000), wk =   0.0025510
        k(  222) = (   0.2142857   1.1959398   0.0412394), wk =   0.0025510
        k(  223) = (   0.2142857   1.1959398   0.0824788), wk =   0.0025510
        k(  224) = (   0.2142857   1.1959398   0.1237182), wk =   0.0025510
        k(  225) = (   0.2857143   0.1649572   0.0000000), wk =   0.0025510
        k(  226) = (   0.2857143   0.1649572   0.0412394), wk =   0.0025510
        k(  227) = (   0.2857143   0.1649572   0.0824788), wk =   0.0025510
        k(  228) = (   0.2857143   0.1649572   0.1237182), wk =   0.0025510
        k(  229) = (   0.2857143   0.2474358   0.0000000), wk =   0.0025510
        k(  230) = (   0.2857143   0.2474358   0.0412394), wk =   0.0025510
        k(  231) = (   0.2857143   0.2474358   0.0824788), wk =   0.0025510
        k(  232) = (   0.2857143   0.2474358   0.1237182), wk =   0.0025510
        k(  233) = (   0.2857143   0.3299144   0.0000000), wk =   0.0025510
        k(  234) = (   0.2857143   0.3299144   0.0412394), wk =   0.0025510
        k(  235) = (   0.2857143   0.3299144   0.0824788), wk =   0.0025510
        k(  236) = (   0.2857143   0.3299144   0.1237182), wk =   0.0025510
        k(  237) = (   0.2857143   0.4123930   0.0000000), wk =   0.0025510
        k(  238) = (   0.2857143   0.4123930   0.0412394), wk =   0.0025510
        k(  239) = (   0.2857143   0.4123930   0.0824788), wk =   0.0025510
        k(  240) = (   0.2857143   0.4123930   0.1237182), wk =   0.0025510
        k(  241) = (   0.2857143   0.4948717   0.0000000), wk =   0.0025510
        k(  242) = (   0.2857143   0.4948717   0.0412394), wk =   0.0025510
        k(  243) = (   0.2857143   0.4948717   0.0824788), wk =   0.0025510
        k(  244) = (   0.2857143   0.4948717   0.1237182), wk =   0.0025510
        k(  245) = (   0.2857143   0.5773503   0.0000000), wk =   0.0025510
        k(  246) = (   0.2857143   0.5773503   0.0412394), wk =   0.0025510
        k(  247) = (   0.2857143   0.5773503   0.0824788), wk =   0.0025510
        k(  248) = (   0.2857143   0.5773503   0.1237182), wk =   0.0025510
        k(  249) = (   0.2857143   0.6598289   0.0000000), wk =   0.0025510
        k(  250) = (   0.2857143   0.6598289   0.0412394), wk =   0.0025510
        k(  251) = (   0.2857143   0.6598289   0.0824788), wk =   0.0025510
        k(  252) = (   0.2857143   0.6598289   0.1237182), wk =   0.0025510
        k(  253) = (   0.2857143   0.7423075   0.0000000), wk =   0.0025510
        k(  254) = (   0.2857143   0.7423075   0.0412394), wk =   0.0025510
        k(  255) = (   0.2857143   0.7423075   0.0824788), wk =   0.0025510
        k(  256) = (   0.2857143   0.7423075   0.1237182), wk =   0.0025510
        k(  257) = (   0.2857143   0.8247861   0.0000000), wk =   0.0025510
        k(  258) = (   0.2857143   0.8247861   0.0412394), wk =   0.0025510
        k(  259) = (   0.2857143   0.8247861   0.0824788), wk =   0.0025510
        k(  260) = (   0.2857143   0.8247861   0.1237182), wk =   0.0025510
        k(  261) = (   0.2857143   0.9072647   0.0000000), wk =   0.0025510
        k(  262) = (   0.2857143   0.9072647   0.0412394), wk =   0.0025510
        k(  263) = (   0.2857143   0.9072647   0.0824788), wk =   0.0025510
        k(  264) = (   0.2857143   0.9072647   0.1237182), wk =   0.0025510
        k(  265) = (   0.2857143   0.9897433   0.0000000), wk =   0.0025510
        k(  266) = (   0.2857143   0.9897433   0.0412394), wk =   0.0025510
        k(  267) = (   0.2857143   0.9897433   0.0824788), wk =   0.0025510
        k(  268) = (   0.2857143   0.9897433   0.1237182), wk =   0.0025510
        k(  269) = (   0.2857143   1.0722219   0.0000000), wk =   0.0025510
        k(  270) = (   0.2857143   1.0722219   0.0412394), wk =   0.0025510
        k(  271) = (   0.2857143   1.0722219   0.0824788), wk =   0.0025510
        k(  272) = (   0.2857143   1.0722219   0.1237182), wk =   0.0025510
        k(  273) = (   0.2857143   1.1547005   0.0000000), wk =   0.0025510
        k(  274) = (   0.2857143   1.1547005   0.0412394), wk =   0.0025510
        k(  275) = (   0.2857143   1.1547005   0.0824788), wk =   0.0025510
        k(  276) = (   0.2857143   1.1547005   0.1237182), wk =   0.0025510
        k(  277) = (   0.2857143   1.2371791   0.0000000), wk =   0.0025510
        k(  278) = (   0.2857143   1.2371791   0.0412394), wk =   0.0025510
        k(  279) = (   0.2857143   1.2371791   0.0824788), wk =   0.0025510
        k(  280) = (   0.2857143   1.2371791   0.1237182), wk =   0.0025510
        k(  281) = (   0.3571429   0.2061965   0.0000000), wk =   0.0025510
        k(  282) = (   0.3571429   0.2061965   0.0412394), wk =   0.0025510
        k(  283) = (   0.3571429   0.2061965   0.0824788), wk =   0.0025510
        k(  284) = (   0.3571429   0.2061965   0.1237182), wk =   0.0025510
        k(  285) = (   0.3571429   0.2886751   0.0000000), wk =   0.0025510
        k(  286) = (   0.3571429   0.2886751   0.0412394), wk =   0.0025510
        k(  287) = (   0.3571429   0.2886751   0.0824788), wk =   0.0025510
        k(  288) = (   0.3571429   0.2886751   0.1237182), wk =   0.0025510
        k(  289) = (   0.3571429   0.3711537   0.0000000), wk =   0.0025510
        k(  290) = (   0.3571429   0.3711537   0.0412394), wk =   0.0025510
        k(  291) = (   0.3571429   0.3711537   0.0824788), wk =   0.0025510
        k(  292) = (   0.3571429   0.3711537   0.1237182), wk =   0.0025510
        k(  293) = (   0.3571429   0.4536324   0.0000000), wk =   0.0025510
        k(  294) = (   0.3571429   0.4536324   0.0412394), wk =   0.0025510
        k(  295) = (   0.3571429   0.4536324   0.0824788), wk =   0.0025510
        k(  296) = (   0.3571429   0.4536324   0.1237182), wk =   0.0025510
        k(  297) = (   0.3571429   0.5361110   0.0000000), wk =   0.0025510
        k(  298) = (   0.3571429   0.5361110   0.0412394), wk =   0.0025510
        k(  299) = (   0.3571429   0.5361110   0.0824788), wk =   0.0025510
        k(  300) = (   0.3571429   0.5361110   0.1237182), wk =   0.0025510
        k(  301) = (   0.3571429   0.6185896   0.0000000), wk =   0.0025510
        k(  302) = (   0.3571429   0.6185896   0.0412394), wk =   0.0025510
        k(  303) = (   0.3571429   0.6185896   0.0824788), wk =   0.0025510
        k(  304) = (   0.3571429   0.6185896   0.1237182), wk =   0.0025510
        k(  305) = (   0.3571429   0.7010682   0.0000000), wk =   0.0025510
        k(  306) = (   0.3571429   0.7010682   0.0412394), wk =   0.0025510
        k(  307) = (   0.3571429   0.7010682   0.0824788), wk =   0.0025510
        k(  308) = (   0.3571429   0.7010682   0.1237182), wk =   0.0025510
        k(  309) = (   0.3571429   0.7835468   0.0000000), wk =   0.0025510
        k(  310) = (   0.3571429   0.7835468   0.0412394), wk =   0.0025510
        k(  311) = (   0.3571429   0.7835468   0.0824788), wk =   0.0025510
        k(  312) = (   0.3571429   0.7835468   0.1237182), wk =   0.0025510
        k(  313) = (   0.3571429   0.8660254   0.0000000), wk =   0.0025510
        k(  314) = (   0.3571429   0.8660254   0.0412394), wk =   0.0025510
        k(  315) = (   0.3571429   0.8660254   0.0824788), wk =   0.0025510
        k(  316) = (   0.3571429   0.8660254   0.1237182), wk =   0.0025510
        k(  317) = (   0.3571429   0.9485040   0.0000000), wk =   0.0025510
        k(  318) = (   0.3571429   0.9485040   0.0412394), wk =   0.0025510
        k(  319) = (   0.3571429   0.9485040   0.0824788), wk =   0.0025510
        k(  320) = (   0.3571429   0.9485040   0.1237182), wk =   0.0025510
        k(  321) = (   0.3571429   1.0309826   0.0000000), wk =   0.0025510
        k(  322) = (   0.3571429   1.0309826   0.0412394), wk =   0.0025510
        k(  323) = (   0.3571429   1.0309826   0.0824788), wk =   0.0025510
        k(  324) = (   0.3571429   1.0309826   0.1237182), wk =   0.0025510
        k(  325) = (   0.3571429   1.1134612   0.0000000), wk =   0.0025510
        k(  326) = (   0.3571429   1.1134612   0.0412394), wk =   0.0025510
        k(  327) = (   0.3571429   1.1134612   0.0824788), wk =   0.0025510
        k(  328) = (   0.3571429   1.1134612   0.1237182), wk =   0.0025510
        k(  329) = (   0.3571429   1.1959398   0.0000000), wk =   0.0025510
        k(  330) = (   0.3571429   1.1959398   0.0412394), wk =   0.0025510
        k(  331) = (   0.3571429   1.1959398   0.0824788), wk =   0.0025510
        k(  332) = (   0.3571429   1.1959398   0.1237182), wk =   0.0025510
        k(  333) = (   0.3571429   1.2784185   0.0000000), wk =   0.0025510
        k(  334) = (   0.3571429   1.2784185   0.0412394), wk =   0.0025510
        k(  335) = (   0.3571429   1.2784185   0.0824788), wk =   0.0025510
        k(  336) = (   0.3571429   1.2784185   0.1237182), wk =   0.0025510
        k(  337) = (   0.4285714   0.2474358   0.0000000), wk =   0.0025510
        k(  338) = (   0.4285714   0.2474358   0.0412394), wk =   0.0025510
        k(  339) = (   0.4285714   0.2474358   0.0824788), wk =   0.0025510
        k(  340) = (   0.4285714   0.2474358   0.1237182), wk =   0.0025510
        k(  341) = (   0.4285714   0.3299144   0.0000000), wk =   0.0025510
        k(  342) = (   0.4285714   0.3299144   0.0412394), wk =   0.0025510
        k(  343) = (   0.4285714   0.3299144   0.0824788), wk =   0.0025510
        k(  344) = (   0.4285714   0.3299144   0.1237182), wk =   0.0025510
        k(  345) = (   0.4285714   0.4123930   0.0000000), wk =   0.0025510
        k(  346) = (   0.4285714   0.4123930   0.0412394), wk =   0.0025510
        k(  347) = (   0.4285714   0.4123930   0.0824788), wk =   0.0025510
        k(  348) = (   0.4285714   0.4123930   0.1237182), wk =   0.0025510
        k(  349) = (   0.4285714   0.4948717   0.0000000), wk =   0.0025510
        k(  350) = (   0.4285714   0.4948717   0.0412394), wk =   0.0025510
        k(  351) = (   0.4285714   0.4948717   0.0824788), wk =   0.0025510
        k(  352) = (   0.4285714   0.4948717   0.1237182), wk =   0.0025510
        k(  353) = (   0.4285714   0.5773503   0.0000000), wk =   0.0025510
        k(  354) = (   0.4285714   0.5773503   0.0412394), wk =   0.0025510
        k(  355) = (   0.4285714   0.5773503   0.0824788), wk =   0.0025510
        k(  356) = (   0.4285714   0.5773503   0.1237182), wk =   0.0025510
        k(  357) = (   0.4285714   0.6598289   0.0000000), wk =   0.0025510
        k(  358) = (   0.4285714   0.6598289   0.0412394), wk =   0.0025510
        k(  359) = (   0.4285714   0.6598289   0.0824788), wk =   0.0025510
        k(  360) = (   0.4285714   0.6598289   0.1237182), wk =   0.0025510
        k(  361) = (   0.4285714   0.7423075   0.0000000), wk =   0.0025510
        k(  362) = (   0.4285714   0.7423075   0.0412394), wk =   0.0025510
        k(  363) = (   0.4285714   0.7423075   0.0824788), wk =   0.0025510
        k(  364) = (   0.4285714   0.7423075   0.1237182), wk =   0.0025510
        k(  365) = (   0.4285714   0.8247861   0.0000000), wk =   0.0025510
        k(  366) = (   0.4285714   0.8247861   0.0412394), wk =   0.0025510
        k(  367) = (   0.4285714   0.8247861   0.0824788), wk =   0.0025510
        k(  368) = (   0.4285714   0.8247861   0.1237182), wk =   0.0025510
        k(  369) = (   0.4285714   0.9072647   0.0000000), wk =   0.0025510
        k(  370) = (   0.4285714   0.9072647   0.0412394), wk =   0.0025510
        k(  371) = (   0.4285714   0.9072647   0.0824788), wk =   0.0025510
        k(  372) = (   0.4285714   0.9072647   0.1237182), wk =   0.0025510
        k(  373) = (   0.4285714   0.9897433   0.0000000), wk =   0.0025510
        k(  374) = (   0.4285714   0.9897433   0.0412394), wk =   0.0025510
        k(  375) = (   0.4285714   0.9897433   0.0824788), wk =   0.0025510
        k(  376) = (   0.4285714   0.9897433   0.1237182), wk =   0.0025510
        k(  377) = (   0.4285714   1.0722219   0.0000000), wk =   0.0025510
        k(  378) = (   0.4285714   1.0722219   0.0412394), wk =   0.0025510
        k(  379) = (   0.4285714   1.0722219   0.0824788), wk =   0.0025510
        k(  380) = (   0.4285714   1.0722219   0.1237182), wk =   0.0025510
        k(  381) = (   0.4285714   1.1547005   0.0000000), wk =   0.0025510
        k(  382) = (   0.4285714   1.1547005   0.0412394), wk =   0.0025510
        k(  383) = (   0.4285714   1.1547005   0.0824788), wk =   0.0025510
        k(  384) = (   0.4285714   1.1547005   0.1237182), wk =   0.0025510
        k(  385) = (   0.4285714   1.2371791   0.0000000), wk =   0.0025510
        k(  386) = (   0.4285714   1.2371791   0.0412394), wk =   0.0025510
        k(  387) = (   0.4285714   1.2371791   0.0824788), wk =   0.0025510
        k(  388) = (   0.4285714   1.2371791   0.1237182), wk =   0.0025510
        k(  389) = (   0.4285714   1.3196578   0.0000000), wk =   0.0025510
        k(  390) = (   0.4285714   1.3196578   0.0412394), wk =   0.0025510
        k(  391) = (   0.4285714   1.3196578   0.0824788), wk =   0.0025510
        k(  392) = (   0.4285714   1.3196578   0.1237182), wk =   0.0025510
        k(  393) = (   0.5000000   0.2886751   0.0000000), wk =   0.0025510
        k(  394) = (   0.5000000   0.2886751   0.0412394), wk =   0.0025510
        k(  395) = (   0.5000000   0.2886751   0.0824788), wk =   0.0025510
        k(  396) = (   0.5000000   0.2886751   0.1237182), wk =   0.0025510
        k(  397) = (   0.5000000   0.3711537   0.0000000), wk =   0.0025510
        k(  398) = (   0.5000000   0.3711537   0.0412394), wk =   0.0025510
        k(  399) = (   0.5000000   0.3711537   0.0824788), wk =   0.0025510
        k(  400) = (   0.5000000   0.3711537   0.1237182), wk =   0.0025510
        k(  401) = (   0.5000000   0.4536324   0.0000000), wk =   0.0025510
        k(  402) = (   0.5000000   0.4536324   0.0412394), wk =   0.0025510
        k(  403) = (   0.5000000   0.4536324   0.0824788), wk =   0.0025510
        k(  404) = (   0.5000000   0.4536324   0.1237182), wk =   0.0025510
        k(  405) = (   0.5000000   0.5361110   0.0000000), wk =   0.0025510
        k(  406) = (   0.5000000   0.5361110   0.0412394), wk =   0.0025510
        k(  407) = (   0.5000000   0.5361110   0.0824788), wk =   0.0025510
        k(  408) = (   0.5000000   0.5361110   0.1237182), wk =   0.0025510
        k(  409) = (   0.5000000   0.6185896   0.0000000), wk =   0.0025510
        k(  410) = (   0.5000000   0.6185896   0.0412394), wk =   0.0025510
        k(  411) = (   0.5000000   0.6185896   0.0824788), wk =   0.0025510
        k(  412) = (   0.5000000   0.6185896   0.1237182), wk =   0.0025510
        k(  413) = (   0.5000000   0.7010682   0.0000000), wk =   0.0025510
        k(  414) = (   0.5000000   0.7010682   0.0412394), wk =   0.0025510
        k(  415) = (   0.5000000   0.7010682   0.0824788), wk =   0.0025510
        k(  416) = (   0.5000000   0.7010682   0.1237182), wk =   0.0025510
        k(  417) = (   0.5000000   0.7835468   0.0000000), wk =   0.0025510
        k(  418) = (   0.5000000   0.7835468   0.0412394), wk =   0.0025510
        k(  419) = (   0.5000000   0.7835468   0.0824788), wk =   0.0025510
        k(  420) = (   0.5000000   0.7835468   0.1237182), wk =   0.0025510
        k(  421) = (   0.5000000   0.8660254   0.0000000), wk =   0.0025510
        k(  422) = (   0.5000000   0.8660254   0.0412394), wk =   0.0025510
        k(  423) = (   0.5000000   0.8660254   0.0824788), wk =   0.0025510
        k(  424) = (   0.5000000   0.8660254   0.1237182), wk =   0.0025510
        k(  425) = (   0.5000000   0.9485040   0.0000000), wk =   0.0025510
        k(  426) = (   0.5000000   0.9485040   0.0412394), wk =   0.0025510
        k(  427) = (   0.5000000   0.9485040   0.0824788), wk =   0.0025510
        k(  428) = (   0.5000000   0.9485040   0.1237182), wk =   0.0025510
        k(  429) = (   0.5000000   1.0309826   0.0000000), wk =   0.0025510
        k(  430) = (   0.5000000   1.0309826   0.0412394), wk =   0.0025510
        k(  431) = (   0.5000000   1.0309826   0.0824788), wk =   0.0025510
        k(  432) = (   0.5000000   1.0309826   0.1237182), wk =   0.0025510
        k(  433) = (   0.5000000   1.1134612   0.0000000), wk =   0.0025510
        k(  434) = (   0.5000000   1.1134612   0.0412394), wk =   0.0025510
        k(  435) = (   0.5000000   1.1134612   0.0824788), wk =   0.0025510
        k(  436) = (   0.5000000   1.1134612   0.1237182), wk =   0.0025510
        k(  437) = (   0.5000000   1.1959398   0.0000000), wk =   0.0025510
        k(  438) = (   0.5000000   1.1959398   0.0412394), wk =   0.0025510
        k(  439) = (   0.5000000   1.1959398   0.0824788), wk =   0.0025510
        k(  440) = (   0.5000000   1.1959398   0.1237182), wk =   0.0025510
        k(  441) = (   0.5000000   1.2784185   0.0000000), wk =   0.0025510
        k(  442) = (   0.5000000   1.2784185   0.0412394), wk =   0.0025510
        k(  443) = (   0.5000000   1.2784185   0.0824788), wk =   0.0025510
        k(  444) = (   0.5000000   1.2784185   0.1237182), wk =   0.0025510
        k(  445) = (   0.5000000   1.3608971   0.0000000), wk =   0.0025510
        k(  446) = (   0.5000000   1.3608971   0.0412394), wk =   0.0025510
        k(  447) = (   0.5000000   1.3608971   0.0824788), wk =   0.0025510
        k(  448) = (   0.5000000   1.3608971   0.1237182), wk =   0.0025510
        k(  449) = (   0.5714286   0.3299144   0.0000000), wk =   0.0025510
        k(  450) = (   0.5714286   0.3299144   0.0412394), wk =   0.0025510
        k(  451) = (   0.5714286   0.3299144   0.0824788), wk =   0.0025510
        k(  452) = (   0.5714286   0.3299144   0.1237182), wk =   0.0025510
        k(  453) = (   0.5714286   0.4123930   0.0000000), wk =   0.0025510
        k(  454) = (   0.5714286   0.4123930   0.0412394), wk =   0.0025510
        k(  455) = (   0.5714286   0.4123930   0.0824788), wk =   0.0025510
        k(  456) = (   0.5714286   0.4123930   0.1237182), wk =   0.0025510
        k(  457) = (   0.5714286   0.4948717   0.0000000), wk =   0.0025510
        k(  458) = (   0.5714286   0.4948717   0.0412394), wk =   0.0025510
        k(  459) = (   0.5714286   0.4948717   0.0824788), wk =   0.0025510
        k(  460) = (   0.5714286   0.4948717   0.1237182), wk =   0.0025510
        k(  461) = (   0.5714286   0.5773503   0.0000000), wk =   0.0025510
        k(  462) = (   0.5714286   0.5773503   0.0412394), wk =   0.0025510
        k(  463) = (   0.5714286   0.5773503   0.0824788), wk =   0.0025510
        k(  464) = (   0.5714286   0.5773503   0.1237182), wk =   0.0025510
        k(  465) = (   0.5714286   0.6598289   0.0000000), wk =   0.0025510
        k(  466) = (   0.5714286   0.6598289   0.0412394), wk =   0.0025510
        k(  467) = (   0.5714286   0.6598289   0.0824788), wk =   0.0025510
        k(  468) = (   0.5714286   0.6598289   0.1237182), wk =   0.0025510
        k(  469) = (   0.5714286   0.7423075   0.0000000), wk =   0.0025510
        k(  470) = (   0.5714286   0.7423075   0.0412394), wk =   0.0025510
        k(  471) = (   0.5714286   0.7423075   0.0824788), wk =   0.0025510
        k(  472) = (   0.5714286   0.7423075   0.1237182), wk =   0.0025510
        k(  473) = (   0.5714286   0.8247861   0.0000000), wk =   0.0025510
        k(  474) = (   0.5714286   0.8247861   0.0412394), wk =   0.0025510
        k(  475) = (   0.5714286   0.8247861   0.0824788), wk =   0.0025510
        k(  476) = (   0.5714286   0.8247861   0.1237182), wk =   0.0025510
        k(  477) = (   0.5714286   0.9072647   0.0000000), wk =   0.0025510
        k(  478) = (   0.5714286   0.9072647   0.0412394), wk =   0.0025510
        k(  479) = (   0.5714286   0.9072647   0.0824788), wk =   0.0025510
        k(  480) = (   0.5714286   0.9072647   0.1237182), wk =   0.0025510
        k(  481) = (   0.5714286   0.9897433   0.0000000), wk =   0.0025510
        k(  482) = (   0.5714286   0.9897433   0.0412394), wk =   0.0025510
        k(  483) = (   0.5714286   0.9897433   0.0824788), wk =   0.0025510
        k(  484) = (   0.5714286   0.9897433   0.1237182), wk =   0.0025510
        k(  485) = (   0.5714286   1.0722219   0.0000000), wk =   0.0025510
        k(  486) = (   0.5714286   1.0722219   0.0412394), wk =   0.0025510
        k(  487) = (   0.5714286   1.0722219   0.0824788), wk =   0.0025510
        k(  488) = (   0.5714286   1.0722219   0.1237182), wk =   0.0025510
        k(  489) = (   0.5714286   1.1547005   0.0000000), wk =   0.0025510
        k(  490) = (   0.5714286   1.1547005   0.0412394), wk =   0.0025510
        k(  491) = (   0.5714286   1.1547005   0.0824788), wk =   0.0025510
        k(  492) = (   0.5714286   1.1547005   0.1237182), wk =   0.0025510
        k(  493) = (   0.5714286   1.2371791   0.0000000), wk =   0.0025510
        k(  494) = (   0.5714286   1.2371791   0.0412394), wk =   0.0025510
        k(  495) = (   0.5714286   1.2371791   0.0824788), wk =   0.0025510
        k(  496) = (   0.5714286   1.2371791   0.1237182), wk =   0.0025510
        k(  497) = (   0.5714286   1.3196578   0.0000000), wk =   0.0025510
        k(  498) = (   0.5714286   1.3196578   0.0412394), wk =   0.0025510
        k(  499) = (   0.5714286   1.3196578   0.0824788), wk =   0.0025510
        k(  500) = (   0.5714286   1.3196578   0.1237182), wk =   0.0025510
        k(  501) = (   0.5714286   1.4021364   0.0000000), wk =   0.0025510
        k(  502) = (   0.5714286   1.4021364   0.0412394), wk =   0.0025510
        k(  503) = (   0.5714286   1.4021364   0.0824788), wk =   0.0025510
        k(  504) = (   0.5714286   1.4021364   0.1237182), wk =   0.0025510
        k(  505) = (   0.6428571   0.3711537   0.0000000), wk =   0.0025510
        k(  506) = (   0.6428571   0.3711537   0.0412394), wk =   0.0025510
        k(  507) = (   0.6428571   0.3711537   0.0824788), wk =   0.0025510
        k(  508) = (   0.6428571   0.3711537   0.1237182), wk =   0.0025510
        k(  509) = (   0.6428571   0.4536324   0.0000000), wk =   0.0025510
        k(  510) = (   0.6428571   0.4536324   0.0412394), wk =   0.0025510
        k(  511) = (   0.6428571   0.4536324   0.0824788), wk =   0.0025510
        k(  512) = (   0.6428571   0.4536324   0.1237182), wk =   0.0025510
        k(  513) = (   0.6428571   0.5361110   0.0000000), wk =   0.0025510
        k(  514) = (   0.6428571   0.5361110   0.0412394), wk =   0.0025510
        k(  515) = (   0.6428571   0.5361110   0.0824788), wk =   0.0025510
        k(  516) = (   0.6428571   0.5361110   0.1237182), wk =   0.0025510
        k(  517) = (   0.6428571   0.6185896   0.0000000), wk =   0.0025510
        k(  518) = (   0.6428571   0.6185896   0.0412394), wk =   0.0025510
        k(  519) = (   0.6428571   0.6185896   0.0824788), wk =   0.0025510
        k(  520) = (   0.6428571   0.6185896   0.1237182), wk =   0.0025510
        k(  521) = (   0.6428571   0.7010682   0.0000000), wk =   0.0025510
        k(  522) = (   0.6428571   0.7010682   0.0412394), wk =   0.0025510
        k(  523) = (   0.6428571   0.7010682   0.0824788), wk =   0.0025510
        k(  524) = (   0.6428571   0.7010682   0.1237182), wk =   0.0025510
        k(  525) = (   0.6428571   0.7835468   0.0000000), wk =   0.0025510
        k(  526) = (   0.6428571   0.7835468   0.0412394), wk =   0.0025510
        k(  527) = (   0.6428571   0.7835468   0.0824788), wk =   0.0025510
        k(  528) = (   0.6428571   0.7835468   0.1237182), wk =   0.0025510
        k(  529) = (   0.6428571   0.8660254   0.0000000), wk =   0.0025510
        k(  530) = (   0.6428571   0.8660254   0.0412394), wk =   0.0025510
        k(  531) = (   0.6428571   0.8660254   0.0824788), wk =   0.0025510
        k(  532) = (   0.6428571   0.8660254   0.1237182), wk =   0.0025510
        k(  533) = (   0.6428571   0.9485040   0.0000000), wk =   0.0025510
        k(  534) = (   0.6428571   0.9485040   0.0412394), wk =   0.0025510
        k(  535) = (   0.6428571   0.9485040   0.0824788), wk =   0.0025510
        k(  536) = (   0.6428571   0.9485040   0.1237182), wk =   0.0025510
        k(  537) = (   0.6428571   1.0309826   0.0000000), wk =   0.0025510
        k(  538) = (   0.6428571   1.0309826   0.0412394), wk =   0.0025510
        k(  539) = (   0.6428571   1.0309826   0.0824788), wk =   0.0025510
        k(  540) = (   0.6428571   1.0309826   0.1237182), wk =   0.0025510
        k(  541) = (   0.6428571   1.1134612   0.0000000), wk =   0.0025510
        k(  542) = (   0.6428571   1.1134612   0.0412394), wk =   0.0025510
        k(  543) = (   0.6428571   1.1134612   0.0824788), wk =   0.0025510
        k(  544) = (   0.6428571   1.1134612   0.1237182), wk =   0.0025510
        k(  545) = (   0.6428571   1.1959398   0.0000000), wk =   0.0025510
        k(  546) = (   0.6428571   1.1959398   0.0412394), wk =   0.0025510
        k(  547) = (   0.6428571   1.1959398   0.0824788), wk =   0.0025510
        k(  548) = (   0.6428571   1.1959398   0.1237182), wk =   0.0025510
        k(  549) = (   0.6428571   1.2784185   0.0000000), wk =   0.0025510
        k(  550) = (   0.6428571   1.2784185   0.0412394), wk =   0.0025510
        k(  551) = (   0.6428571   1.2784185   0.0824788), wk =   0.0025510
        k(  552) = (   0.6428571   1.2784185   0.1237182), wk =   0.0025510
        k(  553) = (   0.6428571   1.3608971   0.0000000), wk =   0.0025510
        k(  554) = (   0.6428571   1.3608971   0.0412394), wk =   0.0025510
        k(  555) = (   0.6428571   1.3608971   0.0824788), wk =   0.0025510
        k(  556) = (   0.6428571   1.3608971   0.1237182), wk =   0.0025510
        k(  557) = (   0.6428571   1.4433757   0.0000000), wk =   0.0025510
        k(  558) = (   0.6428571   1.4433757   0.0412394), wk =   0.0025510
        k(  559) = (   0.6428571   1.4433757   0.0824788), wk =   0.0025510
        k(  560) = (   0.6428571   1.4433757   0.1237182), wk =   0.0025510
        k(  561) = (   0.7142857   0.4123930   0.0000000), wk =   0.0025510
        k(  562) = (   0.7142857   0.4123930   0.0412394), wk =   0.0025510
        k(  563) = (   0.7142857   0.4123930   0.0824788), wk =   0.0025510
        k(  564) = (   0.7142857   0.4123930   0.1237182), wk =   0.0025510
        k(  565) = (   0.7142857   0.4948717   0.0000000), wk =   0.0025510
        k(  566) = (   0.7142857   0.4948717   0.0412394), wk =   0.0025510
        k(  567) = (   0.7142857   0.4948717   0.0824788), wk =   0.0025510
        k(  568) = (   0.7142857   0.4948717   0.1237182), wk =   0.0025510
        k(  569) = (   0.7142857   0.5773503   0.0000000), wk =   0.0025510
        k(  570) = (   0.7142857   0.5773503   0.0412394), wk =   0.0025510
        k(  571) = (   0.7142857   0.5773503   0.0824788), wk =   0.0025510
        k(  572) = (   0.7142857   0.5773503   0.1237182), wk =   0.0025510
        k(  573) = (   0.7142857   0.6598289   0.0000000), wk =   0.0025510
        k(  574) = (   0.7142857   0.6598289   0.0412394), wk =   0.0025510
        k(  575) = (   0.7142857   0.6598289   0.0824788), wk =   0.0025510
        k(  576) = (   0.7142857   0.6598289   0.1237182), wk =   0.0025510
        k(  577) = (   0.7142857   0.7423075   0.0000000), wk =   0.0025510
        k(  578) = (   0.7142857   0.7423075   0.0412394), wk =   0.0025510
        k(  579) = (   0.7142857   0.7423075   0.0824788), wk =   0.0025510
        k(  580) = (   0.7142857   0.7423075   0.1237182), wk =   0.0025510
        k(  581) = (   0.7142857   0.8247861   0.0000000), wk =   0.0025510
        k(  582) = (   0.7142857   0.8247861   0.0412394), wk =   0.0025510
        k(  583) = (   0.7142857   0.8247861   0.0824788), wk =   0.0025510
        k(  584) = (   0.7142857   0.8247861   0.1237182), wk =   0.0025510
        k(  585) = (   0.7142857   0.9072647   0.0000000), wk =   0.0025510
        k(  586) = (   0.7142857   0.9072647   0.0412394), wk =   0.0025510
        k(  587) = (   0.7142857   0.9072647   0.0824788), wk =   0.0025510
        k(  588) = (   0.7142857   0.9072647   0.1237182), wk =   0.0025510
        k(  589) = (   0.7142857   0.9897433   0.0000000), wk =   0.0025510
        k(  590) = (   0.7142857   0.9897433   0.0412394), wk =   0.0025510
        k(  591) = (   0.7142857   0.9897433   0.0824788), wk =   0.0025510
        k(  592) = (   0.7142857   0.9897433   0.1237182), wk =   0.0025510
        k(  593) = (   0.7142857   1.0722219   0.0000000), wk =   0.0025510
        k(  594) = (   0.7142857   1.0722219   0.0412394), wk =   0.0025510
        k(  595) = (   0.7142857   1.0722219   0.0824788), wk =   0.0025510
        k(  596) = (   0.7142857   1.0722219   0.1237182), wk =   0.0025510
        k(  597) = (   0.7142857   1.1547005   0.0000000), wk =   0.0025510
        k(  598) = (   0.7142857   1.1547005   0.0412394), wk =   0.0025510
        k(  599) = (   0.7142857   1.1547005   0.0824788), wk =   0.0025510
        k(  600) = (   0.7142857   1.1547005   0.1237182), wk =   0.0025510
        k(  601) = (   0.7142857   1.2371791   0.0000000), wk =   0.0025510
        k(  602) = (   0.7142857   1.2371791   0.0412394), wk =   0.0025510
        k(  603) = (   0.7142857   1.2371791   0.0824788), wk =   0.0025510
        k(  604) = (   0.7142857   1.2371791   0.1237182), wk =   0.0025510
        k(  605) = (   0.7142857   1.3196578   0.0000000), wk =   0.0025510
        k(  606) = (   0.7142857   1.3196578   0.0412394), wk =   0.0025510
        k(  607) = (   0.7142857   1.3196578   0.0824788), wk =   0.0025510
        k(  608) = (   0.7142857   1.3196578   0.1237182), wk =   0.0025510
        k(  609) = (   0.7142857   1.4021364   0.0000000), wk =   0.0025510
        k(  610) = (   0.7142857   1.4021364   0.0412394), wk =   0.0025510
        k(  611) = (   0.7142857   1.4021364   0.0824788), wk =   0.0025510
        k(  612) = (   0.7142857   1.4021364   0.1237182), wk =   0.0025510
        k(  613) = (   0.7142857   1.4846150   0.0000000), wk =   0.0025510
        k(  614) = (   0.7142857   1.4846150   0.0412394), wk =   0.0025510
        k(  615) = (   0.7142857   1.4846150   0.0824788), wk =   0.0025510
        k(  616) = (   0.7142857   1.4846150   0.1237182), wk =   0.0025510
        k(  617) = (   0.7857143   0.4536324   0.0000000), wk =   0.0025510
        k(  618) = (   0.7857143   0.4536324   0.0412394), wk =   0.0025510
        k(  619) = (   0.7857143   0.4536324   0.0824788), wk =   0.0025510
        k(  620) = (   0.7857143   0.4536324   0.1237182), wk =   0.0025510
        k(  621) = (   0.7857143   0.5361110   0.0000000), wk =   0.0025510
        k(  622) = (   0.7857143   0.5361110   0.0412394), wk =   0.0025510
        k(  623) = (   0.7857143   0.5361110   0.0824788), wk =   0.0025510
        k(  624) = (   0.7857143   0.5361110   0.1237182), wk =   0.0025510
        k(  625) = (   0.7857143   0.6185896   0.0000000), wk =   0.0025510
        k(  626) = (   0.7857143   0.6185896   0.0412394), wk =   0.0025510
        k(  627) = (   0.7857143   0.6185896   0.0824788), wk =   0.0025510
        k(  628) = (   0.7857143   0.6185896   0.1237182), wk =   0.0025510
        k(  629) = (   0.7857143   0.7010682   0.0000000), wk =   0.0025510
        k(  630) = (   0.7857143   0.7010682   0.0412394), wk =   0.0025510
        k(  631) = (   0.7857143   0.7010682   0.0824788), wk =   0.0025510
        k(  632) = (   0.7857143   0.7010682   0.1237182), wk =   0.0025510
        k(  633) = (   0.7857143   0.7835468   0.0000000), wk =   0.0025510
        k(  634) = (   0.7857143   0.7835468   0.0412394), wk =   0.0025510
        k(  635) = (   0.7857143   0.7835468   0.0824788), wk =   0.0025510
        k(  636) = (   0.7857143   0.7835468   0.1237182), wk =   0.0025510
        k(  637) = (   0.7857143   0.8660254   0.0000000), wk =   0.0025510
        k(  638) = (   0.7857143   0.8660254   0.0412394), wk =   0.0025510
        k(  639) = (   0.7857143   0.8660254   0.0824788), wk =   0.0025510
        k(  640) = (   0.7857143   0.8660254   0.1237182), wk =   0.0025510
        k(  641) = (   0.7857143   0.9485040   0.0000000), wk =   0.0025510
        k(  642) = (   0.7857143   0.9485040   0.0412394), wk =   0.0025510
        k(  643) = (   0.7857143   0.9485040   0.0824788), wk =   0.0025510
        k(  644) = (   0.7857143   0.9485040   0.1237182), wk =   0.0025510
        k(  645) = (   0.7857143   1.0309826   0.0000000), wk =   0.0025510
        k(  646) = (   0.7857143   1.0309826   0.0412394), wk =   0.0025510
        k(  647) = (   0.7857143   1.0309826   0.0824788), wk =   0.0025510
        k(  648) = (   0.7857143   1.0309826   0.1237182), wk =   0.0025510
        k(  649) = (   0.7857143   1.1134612   0.0000000), wk =   0.0025510
        k(  650) = (   0.7857143   1.1134612   0.0412394), wk =   0.0025510
        k(  651) = (   0.7857143   1.1134612   0.0824788), wk =   0.0025510
        k(  652) = (   0.7857143   1.1134612   0.1237182), wk =   0.0025510
        k(  653) = (   0.7857143   1.1959398   0.0000000), wk =   0.0025510
        k(  654) = (   0.7857143   1.1959398   0.0412394), wk =   0.0025510
        k(  655) = (   0.7857143   1.1959398   0.0824788), wk =   0.0025510
        k(  656) = (   0.7857143   1.1959398   0.1237182), wk =   0.0025510
        k(  657) = (   0.7857143   1.2784185   0.0000000), wk =   0.0025510
        k(  658) = (   0.7857143   1.2784185   0.0412394), wk =   0.0025510
        k(  659) = (   0.7857143   1.2784185   0.0824788), wk =   0.0025510
        k(  660) = (   0.7857143   1.2784185   0.1237182), wk =   0.0025510
        k(  661) = (   0.7857143   1.3608971   0.0000000), wk =   0.0025510
        k(  662) = (   0.7857143   1.3608971   0.0412394), wk =   0.0025510
        k(  663) = (   0.7857143   1.3608971   0.0824788), wk =   0.0025510
        k(  664) = (   0.7857143   1.3608971   0.1237182), wk =   0.0025510
        k(  665) = (   0.7857143   1.4433757   0.0000000), wk =   0.0025510
        k(  666) = (   0.7857143   1.4433757   0.0412394), wk =   0.0025510
        k(  667) = (   0.7857143   1.4433757   0.0824788), wk =   0.0025510
        k(  668) = (   0.7857143   1.4433757   0.1237182), wk =   0.0025510
        k(  669) = (   0.7857143   1.5258543   0.0000000), wk =   0.0025510
        k(  670) = (   0.7857143   1.5258543   0.0412394), wk =   0.0025510
        k(  671) = (   0.7857143   1.5258543   0.0824788), wk =   0.0025510
        k(  672) = (   0.7857143   1.5258543   0.1237182), wk =   0.0025510
        k(  673) = (   0.8571429   0.4948717   0.0000000), wk =   0.0025510
        k(  674) = (   0.8571429   0.4948717   0.0412394), wk =   0.0025510
        k(  675) = (   0.8571429   0.4948717   0.0824788), wk =   0.0025510
        k(  676) = (   0.8571429   0.4948717   0.1237182), wk =   0.0025510
        k(  677) = (   0.8571429   0.5773503   0.0000000), wk =   0.0025510
        k(  678) = (   0.8571429   0.5773503   0.0412394), wk =   0.0025510
        k(  679) = (   0.8571429   0.5773503   0.0824788), wk =   0.0025510
        k(  680) = (   0.8571429   0.5773503   0.1237182), wk =   0.0025510
        k(  681) = (   0.8571429   0.6598289   0.0000000), wk =   0.0025510
        k(  682) = (   0.8571429   0.6598289   0.0412394), wk =   0.0025510
        k(  683) = (   0.8571429   0.6598289   0.0824788), wk =   0.0025510
        k(  684) = (   0.8571429   0.6598289   0.1237182), wk =   0.0025510
        k(  685) = (   0.8571429   0.7423075   0.0000000), wk =   0.0025510
        k(  686) = (   0.8571429   0.7423075   0.0412394), wk =   0.0025510
        k(  687) = (   0.8571429   0.7423075   0.0824788), wk =   0.0025510
        k(  688) = (   0.8571429   0.7423075   0.1237182), wk =   0.0025510
        k(  689) = (   0.8571429   0.8247861   0.0000000), wk =   0.0025510
        k(  690) = (   0.8571429   0.8247861   0.0412394), wk =   0.0025510
        k(  691) = (   0.8571429   0.8247861   0.0824788), wk =   0.0025510
        k(  692) = (   0.8571429   0.8247861   0.1237182), wk =   0.0025510
        k(  693) = (   0.8571429   0.9072647   0.0000000), wk =   0.0025510
        k(  694) = (   0.8571429   0.9072647   0.0412394), wk =   0.0025510
        k(  695) = (   0.8571429   0.9072647   0.0824788), wk =   0.0025510
        k(  696) = (   0.8571429   0.9072647   0.1237182), wk =   0.0025510
        k(  697) = (   0.8571429   0.9897433   0.0000000), wk =   0.0025510
        k(  698) = (   0.8571429   0.9897433   0.0412394), wk =   0.0025510
        k(  699) = (   0.8571429   0.9897433   0.0824788), wk =   0.0025510
        k(  700) = (   0.8571429   0.9897433   0.1237182), wk =   0.0025510
        k(  701) = (   0.8571429   1.0722219   0.0000000), wk =   0.0025510
        k(  702) = (   0.8571429   1.0722219   0.0412394), wk =   0.0025510
        k(  703) = (   0.8571429   1.0722219   0.0824788), wk =   0.0025510
        k(  704) = (   0.8571429   1.0722219   0.1237182), wk =   0.0025510
        k(  705) = (   0.8571429   1.1547005   0.0000000), wk =   0.0025510
        k(  706) = (   0.8571429   1.1547005   0.0412394), wk =   0.0025510
        k(  707) = (   0.8571429   1.1547005   0.0824788), wk =   0.0025510
        k(  708) = (   0.8571429   1.1547005   0.1237182), wk =   0.0025510
        k(  709) = (   0.8571429   1.2371791   0.0000000), wk =   0.0025510
        k(  710) = (   0.8571429   1.2371791   0.0412394), wk =   0.0025510
        k(  711) = (   0.8571429   1.2371791   0.0824788), wk =   0.0025510
        k(  712) = (   0.8571429   1.2371791   0.1237182), wk =   0.0025510
        k(  713) = (   0.8571429   1.3196578   0.0000000), wk =   0.0025510
        k(  714) = (   0.8571429   1.3196578   0.0412394), wk =   0.0025510
        k(  715) = (   0.8571429   1.3196578   0.0824788), wk =   0.0025510
        k(  716) = (   0.8571429   1.3196578   0.1237182), wk =   0.0025510
        k(  717) = (   0.8571429   1.4021364   0.0000000), wk =   0.0025510
        k(  718) = (   0.8571429   1.4021364   0.0412394), wk =   0.0025510
        k(  719) = (   0.8571429   1.4021364   0.0824788), wk =   0.0025510
        k(  720) = (   0.8571429   1.4021364   0.1237182), wk =   0.0025510
        k(  721) = (   0.8571429   1.4846150   0.0000000), wk =   0.0025510
        k(  722) = (   0.8571429   1.4846150   0.0412394), wk =   0.0025510
        k(  723) = (   0.8571429   1.4846150   0.0824788), wk =   0.0025510
        k(  724) = (   0.8571429   1.4846150   0.1237182), wk =   0.0025510
        k(  725) = (   0.8571429   1.5670936   0.0000000), wk =   0.0025510
        k(  726) = (   0.8571429   1.5670936   0.0412394), wk =   0.0025510
        k(  727) = (   0.8571429   1.5670936   0.0824788), wk =   0.0025510
        k(  728) = (   0.8571429   1.5670936   0.1237182), wk =   0.0025510
        k(  729) = (   0.9285714   0.5361110   0.0000000), wk =   0.0025510
        k(  730) = (   0.9285714   0.5361110   0.0412394), wk =   0.0025510
        k(  731) = (   0.9285714   0.5361110   0.0824788), wk =   0.0025510
        k(  732) = (   0.9285714   0.5361110   0.1237182), wk =   0.0025510
        k(  733) = (   0.9285714   0.6185896   0.0000000), wk =   0.0025510
        k(  734) = (   0.9285714   0.6185896   0.0412394), wk =   0.0025510
        k(  735) = (   0.9285714   0.6185896   0.0824788), wk =   0.0025510
        k(  736) = (   0.9285714   0.6185896   0.1237182), wk =   0.0025510
        k(  737) = (   0.9285714   0.7010682   0.0000000), wk =   0.0025510
        k(  738) = (   0.9285714   0.7010682   0.0412394), wk =   0.0025510
        k(  739) = (   0.9285714   0.7010682   0.0824788), wk =   0.0025510
        k(  740) = (   0.9285714   0.7010682   0.1237182), wk =   0.0025510
        k(  741) = (   0.9285714   0.7835468   0.0000000), wk =   0.0025510
        k(  742) = (   0.9285714   0.7835468   0.0412394), wk =   0.0025510
        k(  743) = (   0.9285714   0.7835468   0.0824788), wk =   0.0025510
        k(  744) = (   0.9285714   0.7835468   0.1237182), wk =   0.0025510
        k(  745) = (   0.9285714   0.8660254   0.0000000), wk =   0.0025510
        k(  746) = (   0.9285714   0.8660254   0.0412394), wk =   0.0025510
        k(  747) = (   0.9285714   0.8660254   0.0824788), wk =   0.0025510
        k(  748) = (   0.9285714   0.8660254   0.1237182), wk =   0.0025510
        k(  749) = (   0.9285714   0.9485040   0.0000000), wk =   0.0025510
        k(  750) = (   0.9285714   0.9485040   0.0412394), wk =   0.0025510
        k(  751) = (   0.9285714   0.9485040   0.0824788), wk =   0.0025510
        k(  752) = (   0.9285714   0.9485040   0.1237182), wk =   0.0025510
        k(  753) = (   0.9285714   1.0309826   0.0000000), wk =   0.0025510
        k(  754) = (   0.9285714   1.0309826   0.0412394), wk =   0.0025510
        k(  755) = (   0.9285714   1.0309826   0.0824788), wk =   0.0025510
        k(  756) = (   0.9285714   1.0309826   0.1237182), wk =   0.0025510
        k(  757) = (   0.9285714   1.1134612   0.0000000), wk =   0.0025510
        k(  758) = (   0.9285714   1.1134612   0.0412394), wk =   0.0025510
        k(  759) = (   0.9285714   1.1134612   0.0824788), wk =   0.0025510
        k(  760) = (   0.9285714   1.1134612   0.1237182), wk =   0.0025510
        k(  761) = (   0.9285714   1.1959398   0.0000000), wk =   0.0025510
        k(  762) = (   0.9285714   1.1959398   0.0412394), wk =   0.0025510
        k(  763) = (   0.9285714   1.1959398   0.0824788), wk =   0.0025510
        k(  764) = (   0.9285714   1.1959398   0.1237182), wk =   0.0025510
        k(  765) = (   0.9285714   1.2784185   0.0000000), wk =   0.0025510
        k(  766) = (   0.9285714   1.2784185   0.0412394), wk =   0.0025510
        k(  767) = (   0.9285714   1.2784185   0.0824788), wk =   0.0025510
        k(  768) = (   0.9285714   1.2784185   0.1237182), wk =   0.0025510
        k(  769) = (   0.9285714   1.3608971   0.0000000), wk =   0.0025510
        k(  770) = (   0.9285714   1.3608971   0.0412394), wk =   0.0025510
        k(  771) = (   0.9285714   1.3608971   0.0824788), wk =   0.0025510
        k(  772) = (   0.9285714   1.3608971   0.1237182), wk =   0.0025510
        k(  773) = (   0.9285714   1.4433757   0.0000000), wk =   0.0025510
        k(  774) = (   0.9285714   1.4433757   0.0412394), wk =   0.0025510
        k(  775) = (   0.9285714   1.4433757   0.0824788), wk =   0.0025510
        k(  776) = (   0.9285714   1.4433757   0.1237182), wk =   0.0025510
        k(  777) = (   0.9285714   1.5258543   0.0000000), wk =   0.0025510
        k(  778) = (   0.9285714   1.5258543   0.0412394), wk =   0.0025510
        k(  779) = (   0.9285714   1.5258543   0.0824788), wk =   0.0025510
        k(  780) = (   0.9285714   1.5258543   0.1237182), wk =   0.0025510
        k(  781) = (   0.9285714   1.6083329   0.0000000), wk =   0.0025510
        k(  782) = (   0.9285714   1.6083329   0.0412394), wk =   0.0025510
        k(  783) = (   0.9285714   1.6083329   0.0824788), wk =   0.0025510
        k(  784) = (   0.9285714   1.6083329   0.1237182), wk =   0.0025510

     PseudoPot. # 1 for Ti read from file:
     /home/sl119982/WBC-phase-stability/SSSP_1.1.2_PBE_precision/ti_pbe_v1.4.uspp.F.UPF
     MD5 check sum: 88a00a6731bd790ddea75d31a80cb452
     Pseudo is Ultrasoft + core correction, Zval = 12.0
     Generated by new atomic code, or converted to UPF format
     Using radial grid of  851 points,  6 beta functions with: 
                l(1) =   0
                l(2) =   0
                l(3) =   1
                l(4) =   1
                l(5) =   2
                l(6) =   2
     Q(r) pseudized with  6 coefficients,  rinner =    1.000   1.000   1.000
                                                       1.000   1.000

     PseudoPot. # 2 for Al read from file:
     /home/sl119982/WBC-phase-stability/SSSP_1.1.2_PBE_precision/Al.pbe-n-kjpaw_psl.1.0.0.UPF
     MD5 check sum: cfc449ca30b5f3223ec38ddd88ac046d
     Pseudo is Projector augmented-wave + core cor, Zval =  3.0
     Generated using "atomic" code by A. Dal Corso  v.5.1
     Shape of augmentation charge: PSQ
     Using radial grid of 1135 points,  6 beta functions with: 
                l(1) =   0
                l(2) =   0
                l(3) =   1
                l(4) =   1
                l(5) =   2
                l(6) =   2
     Q(r) pseudized with 0 coefficients 


     PseudoPot. # 3 for C  read from file:
     /home/sl119982/WBC-phase-stability/SSSP_1.1.2_PBE_precision/C.pbe-n-kjpaw_psl.1.0.0.UPF
     MD5 check sum: 5d2aebdfa2cae82b50a7e79e9516da0f
     Pseudo is Projector augmented-wave + core cor, Zval =  4.0
     Generated using "atomic" code by A. Dal Corso  v.5.1
     Shape of augmentation charge: PSQ
     Using radial grid of 1073 points,  4 beta functions with: 
                l(1) =   0
                l(2) =   0
                l(3) =   1
                l(4) =   1
     Q(r) pseudized with 0 coefficients 

     EPW          :     11.96s CPU     21.71s WALL

     EPW          :     19.68s CPU     29.45s WALL


     -------------------------------------------------------------------
     Using Ti3AlC2.ukk from disk
     -------------------------------------------------------------------


     Calculating kgmap

     Progress kgmap: ########################################
     kmaps        :      0.22s CPU      0.57s WALL (       1 calls)
     Symmetries of Bravais lattice:  24
     Symmetries of crystal:          24


     ===================================================================
     irreducible q point #    1
     ===================================================================

     Symmetries of small group of q: 24
          in addition sym. q -> -q+G:
 
     Number of q in the star =    1
     List of q in the star:
          1   0.000000000   0.000000000   0.000000000
     Imposing acoustic sum rule on the dynamical matrix

     ===================================================================
     irreducible q point #    2
     ===================================================================

     Symmetries of small group of q: 24
          in addition sym. q -> -q+G:
 
     Number of q in the star =    1
     List of q in the star:
          1   0.000000000   0.000000000  -0.082478819
 
        q(    2 ) = (   0.0000000   0.0000000  -0.0824788 )

     ===================================================================
     irreducible q point #    3
     ===================================================================

     Symmetries of small group of q:  4
 
     Number of q in the star =    6
     List of q in the star:
          1   0.000000000   0.164957220   0.000000000
          2  -0.142857143   0.082478610   0.000000000
          3   0.142857143   0.082478610   0.000000000
          4  -0.142857143  -0.082478610   0.000000000
          5   0.142857143  -0.082478610   0.000000000
          6   0.000000000  -0.164957220   0.000000000
 
        q(    3 ) = (   0.0000000   0.1649572   0.0000000 )
        q(    4 ) = (  -0.1428571   0.0824786   0.0000000 )
        q(    5 ) = (   0.1428571   0.0824786   0.0000000 )
        q(    6 ) = (  -0.1428571  -0.0824786   0.0000000 )
        q(    7 ) = (   0.1428571  -0.0824786   0.0000000 )
        q(    8 ) = (   0.0000000  -0.1649572   0.0000000 )

     ===================================================================
     irreducible q point #    4
     ===================================================================

     Symmetries of small group of q:  4
 
     Number of q in the star =    6
     List of q in the star:
          1   0.000000000   0.164957220  -0.082478819
          2  -0.142857143   0.082478610  -0.082478819
          3   0.142857143   0.082478610  -0.082478819
          4  -0.142857143  -0.082478610  -0.082478819
          5   0.142857143  -0.082478610  -0.082478819
          6   0.000000000  -0.164957220   0.082478819
 
        q(    9 ) = (   0.0000000   0.1649572  -0.0824788 )
        q(   10 ) = (  -0.1428571   0.0824786  -0.0824788 )
        q(   11 ) = (   0.1428571   0.0824786  -0.0824788 )
        q(   12 ) = (  -0.1428571  -0.0824786  -0.0824788 )
        q(   13 ) = (   0.1428571  -0.0824786  -0.0824788 )
        q(   14 ) = (   0.0000000  -0.1649572   0.0824788 )

     ===================================================================
     irreducible q point #    5
     ===================================================================

     Symmetries of small group of q:  4
 
     Number of q in the star =    6
     List of q in the star:
          1   0.000000000   0.329914440   0.000000000
          2  -0.285714286   0.164957220   0.000000000
          3   0.285714286   0.164957220   0.000000000
          4  -0.285714286  -0.164957220   0.000000000
          5   0.285714286  -0.164957220   0.000000000
          6   0.000000000  -0.329914440   0.000000000
 
        q(   15 ) = (   0.0000000   0.3299144   0.0000000 )
        q(   16 ) = (  -0.2857143   0.1649572   0.0000000 )
        q(   17 ) = (   0.2857143   0.1649572   0.0000000 )
        q(   18 ) = (  -0.2857143  -0.1649572   0.0000000 )
        q(   19 ) = (   0.2857143  -0.1649572   0.0000000 )
        q(   20 ) = (   0.0000000  -0.3299144   0.0000000 )

     ===================================================================
     irreducible q point #    6
     ===================================================================

     Symmetries of small group of q:  4
 
     Number of q in the star =    6
     List of q in the star:
          1   0.000000000   0.329914440  -0.082478819
          2  -0.285714286   0.164957220  -0.082478819
          3   0.285714286   0.164957220  -0.082478819
          4  -0.285714286  -0.164957220  -0.082478819
          5   0.285714286  -0.164957220  -0.082478819
          6   0.000000000  -0.329914440   0.082478819
 
        q(   21 ) = (   0.0000000   0.3299144  -0.0824788 )
        q(   22 ) = (  -0.2857143   0.1649572  -0.0824788 )
        q(   23 ) = (   0.2857143   0.1649572  -0.0824788 )
        q(   24 ) = (  -0.2857143  -0.1649572  -0.0824788 )
        q(   25 ) = (   0.2857143  -0.1649572  -0.0824788 )
        q(   26 ) = (   0.0000000  -0.3299144   0.0824788 )

     ===================================================================
     irreducible q point #    7
     ===================================================================

     Symmetries of small group of q:  4
 
     Number of q in the star =    6
     List of q in the star:
          1   0.000000000   0.494871659   0.000000000
          2  -0.428571429   0.247435830   0.000000000
          3   0.428571429   0.247435830   0.000000000
          4  -0.428571429  -0.247435830   0.000000000
          5   0.428571429  -0.247435830   0.000000000
          6   0.000000000  -0.494871659   0.000000000
 
        q(   27 ) = (   0.0000000   0.4948717   0.0000000 )
        q(   28 ) = (  -0.4285714   0.2474358   0.0000000 )
        q(   29 ) = (   0.4285714   0.2474358   0.0000000 )
        q(   30 ) = (  -0.4285714  -0.2474358   0.0000000 )
        q(   31 ) = (   0.4285714  -0.2474358   0.0000000 )
        q(   32 ) = (   0.0000000  -0.4948717   0.0000000 )

     ===================================================================
     irreducible q point #    8
     ===================================================================

     Symmetries of small group of q:  4
 
     Number of q in the star =    6
     List of q in the star:
          1   0.000000000   0.494871659  -0.082478819
          2  -0.428571429   0.247435830  -0.082478819
          3   0.428571429   0.247435830  -0.082478819
          4  -0.428571429  -0.247435830  -0.082478819
          5   0.428571429  -0.247435830  -0.082478819
          6   0.000000000  -0.494871659   0.082478819
 
        q(   33 ) = (   0.0000000   0.4948717  -0.0824788 )
        q(   34 ) = (  -0.4285714   0.2474358  -0.0824788 )
        q(   35 ) = (   0.4285714   0.2474358  -0.0824788 )
        q(   36 ) = (  -0.4285714  -0.2474358  -0.0824788 )
        q(   37 ) = (   0.4285714  -0.2474358  -0.0824788 )
        q(   38 ) = (   0.0000000  -0.4948717   0.0824788 )

     ===================================================================
     irreducible q point #    9
     ===================================================================

     Symmetries of small group of q:  4
 
     Number of q in the star =    6
     List of q in the star:
          1   0.142857143   0.247435830   0.000000000
          2  -0.142857143   0.247435830   0.000000000
          3   0.285714286  -0.000000000   0.000000000
          4  -0.285714286   0.000000000   0.000000000
          5   0.142857143  -0.247435830   0.000000000
          6  -0.142857143  -0.247435830   0.000000000
 
        q(   39 ) = (   0.1428571   0.2474358   0.0000000 )
        q(   40 ) = (  -0.1428571   0.2474358   0.0000000 )
        q(   41 ) = (   0.2857143  -0.0000000   0.0000000 )
        q(   42 ) = (  -0.2857143   0.0000000   0.0000000 )
        q(   43 ) = (   0.1428571  -0.2474358   0.0000000 )
        q(   44 ) = (  -0.1428571  -0.2474358   0.0000000 )

     ===================================================================
     irreducible q point #   10
     ===================================================================

     Symmetries of small group of q:  4
 
     Number of q in the star =    6
     List of q in the star:
          1   0.142857143   0.247435830  -0.082478819
          2  -0.142857143   0.247435830  -0.082478819
          3   0.285714286  -0.000000000  -0.082478819
          4  -0.285714286   0.000000000  -0.082478819
          5   0.142857143  -0.247435830  -0.082478819
          6  -0.142857143  -0.247435830   0.082478819
 
        q(   45 ) = (   0.1428571   0.2474358  -0.0824788 )
        q(   46 ) = (  -0.1428571   0.2474358  -0.0824788 )
        q(   47 ) = (   0.2857143  -0.0000000  -0.0824788 )
        q(   48 ) = (  -0.2857143   0.0000000  -0.0824788 )
        q(   49 ) = (   0.1428571  -0.2474358  -0.0824788 )
        q(   50 ) = (  -0.1428571  -0.2474358   0.0824788 )

     ===================================================================
     irreducible q point #   11
     ===================================================================

     Symmetries of small group of q:  2
 
     Number of q in the star =   12
     List of q in the star:
          1   0.142857143   0.412393049   0.000000000
          2   0.285714286   0.329914440   0.000000000
          3  -0.285714286   0.329914440   0.000000000
          4   0.428571429   0.082478610   0.000000000
          5  -0.428571429  -0.082478610   0.000000000
          6   0.285714286  -0.329914440   0.000000000
          7  -0.285714286  -0.329914440   0.000000000
          8   0.428571429  -0.082478610   0.000000000
          9  -0.428571429   0.082478610   0.000000000
         10  -0.142857143   0.412393049   0.000000000
         11  -0.142857143  -0.412393049   0.000000000
         12   0.142857143  -0.412393049   0.000000000
 
        q(   51 ) = (   0.1428571   0.4123930   0.0000000 )
        q(   52 ) = (   0.2857143   0.3299144   0.0000000 )
        q(   53 ) = (  -0.2857143   0.3299144   0.0000000 )
        q(   54 ) = (   0.4285714   0.0824786   0.0000000 )
        q(   55 ) = (  -0.4285714  -0.0824786   0.0000000 )
        q(   56 ) = (   0.2857143  -0.3299144   0.0000000 )
        q(   57 ) = (  -0.2857143  -0.3299144   0.0000000 )
        q(   58 ) = (   0.4285714  -0.0824786   0.0000000 )
        q(   59 ) = (  -0.4285714   0.0824786   0.0000000 )
        q(   60 ) = (  -0.1428571   0.4123930   0.0000000 )
        q(   61 ) = (  -0.1428571  -0.4123930   0.0000000 )
        q(   62 ) = (   0.1428571  -0.4123930   0.0000000 )

     ===================================================================
     irreducible q point #   12
     ===================================================================

     Symmetries of small group of q:  2
 
     Number of q in the star =   12
     List of q in the star:
          1   0.142857143   0.412393049  -0.082478819
          2   0.285714286   0.329914440   0.082478819
          3  -0.285714286   0.329914440  -0.082478819
          4   0.428571429   0.082478610  -0.082478819
          5  -0.428571429  -0.082478610  -0.082478819
          6   0.285714286  -0.329914440  -0.082478819
          7  -0.285714286  -0.329914440   0.082478819
          8   0.428571429  -0.082478610   0.082478819
          9  -0.428571429   0.082478610   0.082478819
         10  -0.142857143   0.412393049   0.082478819
         11  -0.142857143  -0.412393049   0.082478819
         12   0.142857143  -0.412393049  -0.082478819
 
        q(   63 ) = (   0.1428571   0.4123930  -0.0824788 )
[...]
     lambda_tr(  22 )=       0.010689   gamma_tr=       0.141722 meV   omega=     43.0836 meV
     lambda___(  23 )=       0.003278   gamma___=       0.048699 meV   omega=     45.6086 meV
     lambda_tr(  23 )=       0.003388   gamma_tr=       0.050341 meV   omega=     45.6086 meV
     lambda___(  24 )=       0.003278   gamma___=       0.048699 meV   omega=     45.6086 meV
     lambda_tr(  24 )=       0.003388   gamma_tr=       0.050341 meV   omega=     45.6086 meV
     lambda___(  25 )=       0.003112   gamma___=       0.107393 meV   omega=     69.5019 meV
     lambda_tr(  25 )=       0.003419   gamma_tr=       0.117988 meV   omega=     69.5019 meV
     lambda___(  26 )=       0.003112   gamma___=       0.107393 meV   omega=     69.5019 meV
     lambda_tr(  26 )=       0.003419   gamma_tr=       0.117988 meV   omega=     69.5019 meV
     lambda___(  27 )=       0.002029   gamma___=       0.075942 meV   omega=     72.3787 meV
     lambda_tr(  27 )=       0.002413   gamma_tr=       0.090279 meV   omega=     72.3787 meV
     lambda___(  28 )=       0.002029   gamma___=       0.075942 meV   omega=     72.3787 meV
     lambda_tr(  28 )=       0.002413   gamma_tr=       0.090279 meV   omega=     72.3787 meV
     lambda___(  29 )=       0.002488   gamma___=       0.102043 meV   omega=     75.7768 meV
     lambda_tr(  29 )=       0.002135   gamma_tr=       0.087555 meV   omega=     75.7768 meV
     lambda___(  30 )=       0.002488   gamma___=       0.102043 meV   omega=     75.7768 meV
     lambda_tr(  30 )=       0.002135   gamma_tr=       0.087555 meV   omega=     75.7768 meV
     lambda___(  31 )=       0.003390   gamma___=       0.143108 meV   omega=     76.8818 meV
     lambda_tr(  31 )=       0.004549   gamma_tr=       0.192059 meV   omega=     76.8818 meV
     lambda___(  32 )=       0.003390   gamma___=       0.143108 meV   omega=     76.8818 meV
     lambda_tr(  32 )=       0.004549   gamma_tr=       0.192059 meV   omega=     76.8818 meV
     lambda___(  33 )=       0.001494   gamma___=       0.068301 meV   omega=     79.9892 meV
     lambda_tr(  33 )=       0.001412   gamma_tr=       0.064552 meV   omega=     79.9892 meV
     lambda___(  34 )=       0.001494   gamma___=       0.068301 meV   omega=     79.9892 meV
     lambda_tr(  34 )=       0.001412   gamma_tr=       0.064552 meV   omega=     79.9892 meV
     lambda___(  35 )=       0.003219   gamma___=       0.155809 meV   omega=     82.3189 meV
     lambda_tr(  35 )=       0.002495   gamma_tr=       0.120755 meV   omega=     82.3189 meV
     lambda___(  36 )=       0.003219   gamma___=       0.155809 meV   omega=     82.3189 meV
     lambda_tr(  36 )=       0.002495   gamma_tr=       0.120755 meV   omega=     82.3189 meV
     lambda___( tot )=       0.152680
     lambda_tr( tot )=       0.177586
     -------------------------------------------------------------------


     Number of (k,k+q) pairs on the Fermi surface:      784 out of      784


     ismear =     1 iq =      97 coord.:   0.85714  0.85714  0.00000 wt:   0.01020 Temp:  300.000K
     -------------------------------------------------------------------
     lambda___(   1 )=       0.001332   gamma___=       0.002630 meV   omega=     16.6238 meV
     lambda_tr(   1 )=       0.001368   gamma_tr=       0.002700 meV   omega=     16.6238 meV
     lambda___(   2 )=       0.000720   gamma___=       0.001776 meV   omega=     18.5779 meV
     lambda_tr(   2 )=       0.000582   gamma_tr=       0.001434 meV   omega=     18.5779 meV
     lambda___(   3 )=       0.002101   gamma___=       0.005333 meV   omega=     18.8503 meV
     lambda_tr(   3 )=       0.001520   gamma_tr=       0.003858 meV   omega=     18.8503 meV
     lambda___(   4 )=       0.001702   gamma___=       0.004829 meV   omega=     19.9290 meV
     lambda_tr(   4 )=       0.000966   gamma_tr=       0.002742 meV   omega=     19.9290 meV
     lambda___(   5 )=       0.005057   gamma___=       0.016313 meV   omega=     21.2504 meV
     lambda_tr(   5 )=       0.003653   gamma_tr=       0.011784 meV   omega=     21.2504 meV
     lambda___(   6 )=       0.000731   gamma___=       0.002599 meV   omega=     22.3151 meV
     lambda_tr(   6 )=       0.000354   gamma_tr=       0.001258 meV   omega=     22.3151 meV
     lambda___(   7 )=       0.000866   gamma___=       0.003463 meV   omega=     23.6535 meV
     lambda_tr(   7 )=       0.000663   gamma_tr=       0.002648 meV   omega=     23.6535 meV
     lambda___(   8 )=       0.006663   gamma___=       0.028846 meV   omega=     24.6197 meV
     lambda_tr(   8 )=       0.008691   gamma_tr=       0.037630 meV   omega=     24.6197 meV
     lambda___(   9 )=       0.001526   gamma___=       0.007642 meV   omega=     26.4794 meV
     lambda_tr(   9 )=       0.001213   gamma_tr=       0.006075 meV   omega=     26.4794 meV
     lambda___(  10 )=       0.012155   gamma___=       0.067445 meV   omega=     27.8716 meV
     lambda_tr(  10 )=       0.014625   gamma_tr=       0.081155 meV   omega=     27.8716 meV
     lambda___(  11 )=       0.008152   gamma___=       0.045318 meV   omega=     27.8965 meV
     lambda_tr(  11 )=       0.011946   gamma_tr=       0.066403 meV   omega=     27.8965 meV
     lambda___(  12 )=       0.014814   gamma___=       0.087687 meV   omega=     28.7865 meV
     lambda_tr(  12 )=       0.020102   gamma_tr=       0.118988 meV   omega=     28.7865 meV
     lambda___(  13 )=       0.000596   gamma___=       0.003749 meV   omega=     29.6695 meV
     lambda_tr(  13 )=       0.000295   gamma_tr=       0.001857 meV   omega=     29.6695 meV
     lambda___(  14 )=       0.007906   gamma___=       0.061169 meV   omega=     32.9123 meV
     lambda_tr(  14 )=       0.010443   gamma_tr=       0.080803 meV   omega=     32.9123 meV
     lambda___(  15 )=       0.000868   gamma___=       0.007009 meV   omega=     33.6150 meV
     lambda_tr(  15 )=       0.000730   gamma_tr=       0.005892 meV   omega=     33.6150 meV
     lambda___(  16 )=       0.005267   gamma___=       0.044344 meV   omega=     34.3320 meV
     lambda_tr(  16 )=       0.005240   gamma_tr=       0.044115 meV   omega=     34.3320 meV
     lambda___(  17 )=       0.007653   gamma___=       0.066984 meV   omega=     35.0053 meV
     lambda_tr(  17 )=       0.011233   gamma_tr=       0.098325 meV   omega=     35.0053 meV
     lambda___(  18 )=       0.001677   gamma___=       0.015409 meV   omega=     35.8673 meV
     lambda_tr(  18 )=       0.000859   gamma_tr=       0.007894 meV   omega=     35.8673 meV
     lambda___(  19 )=       0.001521   gamma___=       0.014029 meV   omega=     35.9334 meV
     lambda_tr(  19 )=       0.000703   gamma_tr=       0.006484 meV   omega=     35.9334 meV
     lambda___(  20 )=       0.002225   gamma___=       0.023716 meV   omega=     38.6299 meV
     lambda_tr(  20 )=       0.001303   gamma_tr=       0.013892 meV   omega=     38.6299 meV
     lambda___(  21 )=       0.007862   gamma___=       0.091821 meV   omega=     40.4364 meV
     lambda_tr(  21 )=       0.010848   gamma_tr=       0.126704 meV   omega=     40.4364 meV
     lambda___(  22 )=       0.004067   gamma___=       0.053120 meV   omega=     42.7605 meV
     lambda_tr(  22 )=       0.004772   gamma_tr=       0.062328 meV   omega=     42.7605 meV
     lambda___(  23 )=       0.002229   gamma___=       0.034530 meV   omega=     46.5708 meV
     lambda_tr(  23 )=       0.001336   gamma_tr=       0.020690 meV   omega=     46.5708 meV
     lambda___(  24 )=       0.001226   gamma___=       0.019571 meV   omega=     47.2763 meV
     lambda_tr(  24 )=       0.000630   gamma_tr=       0.010055 meV   omega=     47.2763 meV
     lambda___(  25 )=       0.003072   gamma___=       0.104120 meV   omega=     68.8856 meV
     lambda_tr(  25 )=       0.001656   gamma_tr=       0.056124 meV   omega=     68.8856 meV
     lambda___(  26 )=       0.003071   gamma___=       0.104120 meV   omega=     68.8965 meV
     lambda_tr(  26 )=       0.001655   gamma_tr=       0.056124 meV   omega=     68.8965 meV
     lambda___(  27 )=       0.007142   gamma___=       0.287137 meV   omega=     75.0234 meV
     lambda_tr(  27 )=       0.010444   gamma_tr=       0.419892 meV   omega=     75.0234 meV
     lambda___(  28 )=       0.009440   gamma___=       0.379752 meV   omega=     75.0462 meV
     lambda_tr(  28 )=       0.011839   gamma_tr=       0.476270 meV   omega=     75.0462 meV
     lambda___(  29 )=       0.000870   gamma___=       0.035800 meV   omega=     75.8817 meV
     lambda_tr(  29 )=       0.000466   gamma_tr=       0.019160 meV   omega=     75.8817 meV
     lambda___(  30 )=       0.001134   gamma___=       0.046673 meV   omega=     75.9132 meV
     lambda_tr(  30 )=       0.001018   gamma_tr=       0.041913 meV   omega=     75.9132 meV
     lambda___(  31 )=       0.001003   gamma___=       0.041344 meV   omega=     75.9639 meV
     lambda_tr(  31 )=       0.000487   gamma_tr=       0.020091 meV   omega=     75.9639 meV
     lambda___(  32 )=       0.001105   gamma___=       0.045605 meV   omega=     76.0270 meV
     lambda_tr(  32 )=       0.000715   gamma_tr=       0.029521 meV   omega=     76.0270 meV
     lambda___(  33 )=       0.000790   gamma___=       0.035429 meV   omega=     79.2498 meV
     lambda_tr(  33 )=       0.000416   gamma_tr=       0.018647 meV   omega=     79.2498 meV
     lambda___(  34 )=       0.003275   gamma___=       0.147334 meV   omega=     79.3649 meV
     lambda_tr(  34 )=       0.003161   gamma_tr=       0.142204 meV   omega=     79.3649 meV
     lambda___(  35 )=       0.003274   gamma___=       0.147334 meV   omega=     79.3699 meV
     lambda_tr(  35 )=       0.003160   gamma_tr=       0.142204 meV   omega=     79.3699 meV
     lambda___(  36 )=       0.008857   gamma___=       0.399270 meV   omega=     79.4427 meV
     lambda_tr(  36 )=       0.008839   gamma_tr=       0.398464 meV   omega=     79.4427 meV
     lambda___( tot )=       0.141948
     lambda_tr( tot )=       0.157931
     -------------------------------------------------------------------


     Number of (k,k+q) pairs on the Fermi surface:      784 out of      784


     ismear =     1 iq =      98 coord.:   0.85714  0.85714  0.50000 wt:   0.01020 Temp:  300.000K
     -------------------------------------------------------------------
     lambda___(   1 )=       0.002366   gamma___=       0.005158 meV   omega=     17.4696 meV
     lambda_tr(   1 )=       0.002787   gamma_tr=       0.006075 meV   omega=     17.4696 meV
     lambda___(   2 )=       0.002366   gamma___=       0.005158 meV   omega=     17.4696 meV
     lambda_tr(   2 )=       0.002787   gamma_tr=       0.006075 meV   omega=     17.4696 meV
     lambda___(   3 )=       0.000799   gamma___=       0.002092 meV   omega=     19.1461 meV
     lambda_tr(   3 )=       0.000957   gamma_tr=       0.002505 meV   omega=     19.1461 meV
     lambda___(   4 )=       0.000799   gamma___=       0.002092 meV   omega=     19.1461 meV
     lambda_tr(   4 )=       0.000957   gamma_tr=       0.002505 meV   omega=     19.1461 meV
     lambda___(   5 )=       0.001340   gamma___=       0.004827 meV   omega=     22.4537 meV
     lambda_tr(   5 )=       0.000862   gamma_tr=       0.003104 meV   omega=     22.4537 meV
     lambda___(   6 )=       0.001340   gamma___=       0.004827 meV   omega=     22.4537 meV
     lambda_tr(   6 )=       0.000862   gamma_tr=       0.003104 meV   omega=     22.4537 meV
     lambda___(   7 )=       0.001681   gamma___=       0.006894 meV   omega=     23.9651 meV
     lambda_tr(   7 )=       0.002280   gamma_tr=       0.009352 meV   omega=     23.9651 meV
     lambda___(   8 )=       0.001681   gamma___=       0.006894 meV   omega=     23.9651 meV
     lambda_tr(   8 )=       0.002280   gamma_tr=       0.009352 meV   omega=     23.9651 meV
     lambda___(   9 )=       0.006327   gamma___=       0.032312 meV   omega=     26.7380 meV
     lambda_tr(   9 )=       0.007993   gamma_tr=       0.040819 meV   omega=     26.7380 meV
     lambda___(  10 )=       0.006327   gamma___=       0.032312 meV   omega=     26.7380 meV
     lambda_tr(  10 )=       0.007993   gamma_tr=       0.040819 meV   omega=     26.7380 meV
     lambda___(  11 )=       0.009015   gamma___=       0.052015 meV   omega=     28.4214 meV
     lambda_tr(  11 )=       0.014089   gamma_tr=       0.081295 meV   omega=     28.4214 meV
     lambda___(  12 )=       0.009015   gamma___=       0.052015 meV   omega=     28.4214 meV
     lambda_tr(  12 )=       0.014089   gamma_tr=       0.081295 meV   omega=     28.4214 meV
     lambda___(  13 )=       0.003747   gamma___=       0.026624 meV   omega=     31.5401 meV
     lambda_tr(  13 )=       0.005107   gamma_tr=       0.036291 meV   omega=     31.5401 meV
     lambda___(  14 )=       0.003747   gamma___=       0.026624 meV   omega=     31.5401 meV
     lambda_tr(  14 )=       0.005107   gamma_tr=       0.036291 meV   omega=     31.5401 meV
     lambda___(  15 )=       0.005293   gamma___=       0.042840 meV   omega=     33.6604 meV
     lambda_tr(  15 )=       0.007438   gamma_tr=       0.060197 meV   omega=     33.6604 meV
     lambda___(  16 )=       0.005293   gamma___=       0.042840 meV   omega=     33.6604 meV
     lambda_tr(  16 )=       0.007438   gamma_tr=       0.060197 meV   omega=     33.6604 meV
     lambda___(  17 )=       0.001730   gamma___=       0.015924 meV   omega=     35.8954 meV
     lambda_tr(  17 )=       0.000982   gamma_tr=       0.009038 meV   omega=     35.8954 meV
     lambda___(  18 )=       0.001730   gamma___=       0.015924 meV   omega=     35.8954 meV
     lambda_tr(  18 )=       0.000982   gamma_tr=       0.009038 meV   omega=     35.8954 meV
     lambda___(  19 )=       0.004379   gamma___=       0.042732 meV   omega=     36.9631 meV
     lambda_tr(  19 )=       0.006365   gamma_tr=       0.062120 meV   omega=     36.9631 meV
     lambda___(  20 )=       0.004379   gamma___=       0.042732 meV   omega=     36.9631 meV
     lambda_tr(  20 )=       0.006365   gamma_tr=       0.062120 meV   omega=     36.9631 meV
     lambda___(  21 )=       0.005030   gamma___=       0.062858 meV   omega=     41.8285 meV
     lambda_tr(  21 )=       0.006860   gamma_tr=       0.085738 meV   omega=     41.8285 meV
     lambda___(  22 )=       0.005030   gamma___=       0.062858 meV   omega=     41.8285 meV
     lambda_tr(  22 )=       0.006860   gamma_tr=       0.085738 meV   omega=     41.8285 meV
     lambda___(  23 )=       0.001300   gamma___=       0.020515 meV   omega=     46.9971 meV
     lambda_tr(  23 )=       0.000952   gamma_tr=       0.015025 meV   omega=     46.9971 meV
     lambda___(  24 )=       0.001300   gamma___=       0.020515 meV   omega=     46.9971 meV
     lambda_tr(  24 )=       0.000952   gamma_tr=       0.015025 meV   omega=     46.9971 meV
     lambda___(  25 )=       0.003054   gamma___=       0.103525 meV   omega=     68.8879 meV
     lambda_tr(  25 )=       0.001863   gamma_tr=       0.063139 meV   omega=     68.8879 meV
     lambda___(  26 )=       0.003054   gamma___=       0.103525 meV   omega=     68.8879 meV
     lambda_tr(  26 )=       0.001863   gamma_tr=       0.063139 meV   omega=     68.8879 meV
     lambda___(  27 )=       0.007475   gamma___=       0.300646 meV   omega=     75.0403 meV
     lambda_tr(  27 )=       0.011369   gamma_tr=       0.457291 meV   omega=     75.0403 meV
     lambda___(  28 )=       0.007475   gamma___=       0.300646 meV   omega=     75.0403 meV
     lambda_tr(  28 )=       0.011369   gamma_tr=       0.457291 meV   omega=     75.0403 meV
     lambda___(  29 )=       0.000465   gamma___=       0.019140 meV   omega=     75.9132 meV
     lambda_tr(  29 )=       0.000483   gamma_tr=       0.019876 meV   omega=     75.9132 meV
     lambda___(  30 )=       0.000465   gamma___=       0.019140 meV   omega=     75.9132 meV
     lambda_tr(  30 )=       0.000483   gamma_tr=       0.019876 meV   omega=     75.9132 meV
     lambda___(  31 )=       0.001467   gamma___=       0.060509 meV   omega=     75.9819 meV
     lambda_tr(  31 )=       0.000918   gamma_tr=       0.037870 meV   omega=     75.9819 meV
     lambda___(  32 )=       0.001467   gamma___=       0.060509 meV   omega=     75.9819 meV
     lambda_tr(  32 )=       0.000918   gamma_tr=       0.037870 meV   omega=     75.9819 meV
     lambda___(  33 )=       0.001849   gamma___=       0.083027 meV   omega=     79.2851 meV
     lambda_tr(  33 )=       0.002038   gamma_tr=       0.091520 meV   omega=     79.2851 meV
     lambda___(  34 )=       0.001849   gamma___=       0.083027 meV   omega=     79.2851 meV
     lambda_tr(  34 )=       0.002038   gamma_tr=       0.091520 meV   omega=     79.2851 meV
     lambda___(  35 )=       0.004233   gamma___=       0.190560 meV   omega=     79.3880 meV
     lambda_tr(  35 )=       0.005126   gamma_tr=       0.230743 meV   omega=     79.3880 meV
     lambda___(  36 )=       0.004233   gamma___=       0.190560 meV   omega=     79.3880 meV
     lambda_tr(  36 )=       0.005126   gamma_tr=       0.230743 meV   omega=     79.3880 meV
     lambda___( tot )=       0.123100
     lambda_tr( tot )=       0.156938
     -------------------------------------------------------------------


     Number of (k,k+q) pairs on the Fermi surface:      784 out of      784

     ===================================================================
     Memory usage:  VmHWM =      5668Mb
                   VmPeak =      8609Mb
     ===================================================================


     ===================================================================
     Eliashberg Spectral Function in the Migdal Approximation
     ===================================================================

     lambda :    0.1654526
     lambda_tr :    0.1790456
 
     Estimated Allen-Dynes Tc
 
     logavg =    0.0028815 l_a2f =    0.1511738
     mu =   0.10 Tc =         0.000000000138 K
     mu =   0.12 Tc =         0.000000000000 K
     a2F          :      0.51s CPU      0.55s WALL (       1 calls)

     Unfolding on the coarse grid
     dvanqq2      :     61.63s CPU     61.72s WALL (      98 calls)
     elphon_wrap  :  35828.97s CPU  36219.97s WALL (       1 calls)

     INITIALIZATION: 

     set_drhoc    :    518.07s CPU    518.30s WALL (      99 calls)
     init_vloc    :      0.11s CPU      0.11s WALL (       1 calls)
     init_us_1    :      1.10s CPU      1.13s WALL (       2 calls)
     newdq2       :    158.26s CPU    158.49s WALL (    3168 calls)
     dvanqq2      :     61.63s CPU     61.72s WALL (      98 calls)



     Electron-Phonon interpolation
     ephwann      :   7092.45s CPU  24354.29s WALL (       1 calls)
     ep-interp    :   5937.00s CPU  18681.38s WALL (      98 calls)
     PH SELF-ENER :      2.24s CPU      2.24s WALL (      98 calls)

     Ham: step 1  :      0.00s CPU      0.00s WALL (       1 calls)
     Ham: step 2  :      0.14s CPU      0.20s WALL (       1 calls)
     ep: step 1   :      2.96s CPU      2.99s WALL (    3528 calls)
     ep: step 2   :   7069.58s CPU  24330.09s WALL (       1 calls)
     DynW2B       :      0.08s CPU      0.10s WALL (      98 calls)
     HamW2B       :     13.47s CPU     13.65s WALL (    2189 calls)
     ephW2Bp      :   5597.84s CPU  18341.75s WALL (      98 calls)
     ephW2B       :    235.06s CPU    235.28s WALL (    1078 calls)
     vmewan2bloch :     71.48s CPU     71.59s WALL (    2156 calls)
     vmewan2bloch :     71.48s CPU     71.59s WALL (    2156 calls)


     Total program execution
     EPW          :     11h55m CPU     16h50m WALL

     ===============================================================================
     The functionality-dependent EPW.bib file was created with suggested citations. 
     Please consider citing the papers listed in EPW.bib.                           
     ===============================================================================
                                                                                    
