================================================================================
| EXCITING BORON started                                                       =
| version hash id:                                                             =
| MPI version using     16 processor(s)                                        =
|                                                                              =
| Date (DD-MM-YYYY) : 09-08-2015                                               =
| Time (hh:mm:ss)   : 22:14:31                                                 =
|                                                                              =
| All units are atomic (Hartree, Bohr, etc.)                                   =
================================================================================
 
********************************************************************************
| Structural optimisation starting from atomic densities                       *
********************************************************************************
 
++++++++++++++++++++++++++++++++++++++++++++++++++++++++++++++++++++++++++++++++
| Starting initialization                                                      +
++++++++++++++++++++++++++++++++++++++++++++++++++++++++++++++++++++++++++++++++
 
 Lattice vectors (cartesian) :
      2.3501547992      4.0705875178      0.0000000000
     -2.3501547992      4.0705875178      0.0000000000
      0.0000000000      0.0000000000      6.4432377586
 
 Reciprocal lattice vectors (cartesian) :
      1.3367598827      0.7717786781      0.0000000000
     -1.3367598827      0.7717786781      0.0000000000
      0.0000000000      0.0000000000      0.9751596236
 
 Unit cell volume                           :     123.2786070840
 Brillouin zone volume                      :       2.0121107734
 
 Species :    1 (C)
     parameters loaded from                 :    C.xml
     name                                   :    carbon
     nuclear charge                         :      -6.00000000
     electronic charge                      :       6.00000000
     atomic mass                            :   21894.16673000
     muffin-tin radius                      :       1.20000000
     # of radial points in muffin-tin       :     250
 
     atomic positions (lattice) :
       1 :   0.00000000  0.00000000  0.00000000
       2 :   0.33333333  0.33333333  0.00000000
 
 Total number of atoms per unit cell        :       2
 
 Spin treatment                             :    spin-unpolarised
 
 Number of Bravais lattice symmetries       :      24
 Number of crystal symmetries               :      24
 
 k-point grid                               :      34   34   24
 Total number of k-points                   :    1482
 k-point set is reduced with crystal symmetries
 
 R^MT_min * |G+k|_max (rgkmax)              :       8.00000000
 Species with R^MT_min                      :       1 (C)
 Maximum |G+k| for APW functions            :       6.66666667
 Maximum |G| for potential and density      :      20.00000000
 
 G-vector grid sizes                        :      30    30    45
 Total number of G-vectors                  :   16631
 
 Maximum angular momentum used for
     APW functions                          :       8
     computing H and O matrix elements      :       8
     potential and density                  :       8
     inner part of muffin-tin               :       2
 
 Total nuclear charge                       :     -12.00000000
 Total electronic charge                    :      12.00000000
 Total core charge                          :       4.00000000
 Total valence charge                       :       8.00000000
 
 Number of empty states                     :       5
 Total number of valence states             :      10
 
 Maximum Hamiltonian size                   :     642
 Maximum number of plane-waves              :     634
 Total number of local-orbitals             :       8
 
 Exchange-correlation type                  :      20
     Perdew-Burke-Ernzerhof, Phys. Rev. Lett. 77, 3865 (1996)
     Generalised gradient approximation (GGA)
 
 Smearing scheme                            :    Gaussian
 Smearing width                             :       0.01000000
 
 Using multisecant Broyden potential mixing
 
++++++++++++++++++++++++++++++++++++++++++++++++++++++++++++++++++++++++++++++++
| Ending initialization                                                        +
++++++++++++++++++++++++++++++++++++++++++++++++++++++++++++++++++++++++++++++++
 
********************************************************************************
| Groundstate module started                                                   *
********************************************************************************
 Output level for this task is set to normal
 
++++++++++++++++++++++++++++++++++++++++++++++++++++++++++++++++++++++++++++++++
| Self-consistent loop started                                                 +
++++++++++++++++++++++++++++++++++++++++++++++++++++++++++++++++++++++++++++++++
 Density and potential initialised from atomic data
 
 
++++++++++++++++++++++++++++++++++++++++++++++++++++++++++++++++++++++++++++++++
| SCF iteration number :    1                                                  +
++++++++++++++++++++++++++++++++++++++++++++++++++++++++++++++++++++++++++++++++
 Total energy                               :       -78.20550503
 _______________________________________________________________
 Fermi energy                               :         0.16556760
 Kinetic energy                             :        74.52039036
 Coulomb energy                             :      -141.83229304
 Exchange energy                            :       -10.47579807
 Correlation energy                         :        -0.41780429
 
 DOS at Fermi energy (states/Ha/cell)       :         1.13695621
 
 Electron charges :
     core                                   :         4.00000000
     core leakage                           :         0.00128075
     valence                                :         8.00000000
     interstitial                           :         4.58710129
     charge in muffin-tin spheres :
                  atom     1     C          :         3.70644936
                  atom     2     C          :         3.70644936
     total charge in muffin-tins            :         7.41289871
     total charge                           :        12.00000000
 
 Wall time (seconds)                        :        36.68
 
++++++++++++++++++++++++++++++++++++++++++++++++++++++++++++++++++++++++++++++++
| SCF iteration number :    2                                                  +
++++++++++++++++++++++++++++++++++++++++++++++++++++++++++++++++++++++++++++++++
 Total energy                               :       -77.47123437
 _______________________________________________________________
 Fermi energy                               :         0.18580451
 Kinetic energy                             :        75.01352126
 Coulomb energy                             :      -141.62635601
 Exchange energy                            :       -10.43965894
 Correlation energy                         :        -0.41874067
 
 DOS at Fermi energy (states/Ha/cell)       :         1.21826572
 
 Electron charges :
     core                                   :         4.00000000
     core leakage                           :         0.00129228
     valence                                :         8.00000000
     interstitial                           :         4.64754150
     charge in muffin-tin spheres :
                  atom     1     C          :         3.67622925
                  atom     2     C          :         3.67622925
     total charge in muffin-tins            :         7.35245850
     total charge                           :        12.00000000
 
 Wall time (seconds)                        :        72.44
 
 RMS change in effective potential (target) :   1.60431      ( 0.100000E-05)
 Absolute change in total energy   (target) :  0.734271      ( 0.100000E-06)
 Charge distance                   (target) :  0.123815E-01  ( 0.100000E-04)
 Abs. change in max-nonIBS-force   (target) :   0.00000      ( 0.250000E-05)
 
++++++++++++++++++++++++++++++++++++++++++++++++++++++++++++++++++++++++++++++++
| SCF iteration number :    3                                                  +
++++++++++++++++++++++++++++++++++++++++++++++++++++++++++++++++++++++++++++++++
 Total energy                               :       -76.95178450
 _______________________________________________________________
 Fermi energy                               :         0.19962836
 Kinetic energy                             :        75.35950887
 Coulomb energy                             :      -141.47828153
 Exchange energy                            :       -10.41354047
 Correlation energy                         :        -0.41947136
 
 DOS at Fermi energy (states/Ha/cell)       :         1.28621730
 
 Electron charges :
     core                                   :         4.00000000
     core leakage                           :         0.00129966
     valence                                :         8.00000000
     interstitial                           :         4.69149659
     charge in muffin-tin spheres :
                  atom     1     C          :         3.65425171
                  atom     2     C          :         3.65425171
     total charge in muffin-tins            :         7.30850341
     total charge                           :        12.00000000
 
 Wall time (seconds)                        :       108.33
 
 RMS change in effective potential (target) :   1.18330      ( 0.100000E-05)
 Absolute change in total energy   (target) :  0.519450      ( 0.100000E-06)
 Charge distance                   (target) :  0.911169E-02  ( 0.100000E-04)
 Abs. change in max-nonIBS-force   (target) :   0.00000      ( 0.250000E-05)
 
++++++++++++++++++++++++++++++++++++++++++++++++++++++++++++++++++++++++++++++++
| SCF iteration number :    4                                                  +
++++++++++++++++++++++++++++++++++++++++++++++++++++++++++++++++++++++++++++++++
 Total energy                               :       -76.72066382
 _______________________________________________________________
 Fermi energy                               :         0.20524817
 Kinetic energy                             :        75.52796960
 Coulomb energy                             :      -141.42965508
 Exchange energy                            :       -10.39902544
 Correlation energy                         :        -0.41995290
 
 DOS at Fermi energy (states/Ha/cell)       :         1.33446293
 
 Electron charges :
     core                                   :         4.00000000
     core leakage                           :         0.00129194
     valence                                :         8.00000000
     interstitial                           :         4.72020704
     charge in muffin-tin spheres :
                  atom     1     C          :         3.63989648
                  atom     2     C          :         3.63989648
     total charge in muffin-tins            :         7.27979296
     total charge                           :        12.00000000
 
 Wall time (seconds)                        :       144.17
 
 RMS change in effective potential (target) :  0.634373E-01  ( 0.100000E-05)
 Absolute change in total energy   (target) :  0.231121      ( 0.100000E-06)
 Charge distance                   (target) :  0.649797E-02  ( 0.100000E-04)
 Abs. change in max-nonIBS-force   (target) :   0.00000      ( 0.250000E-05)
 
++++++++++++++++++++++++++++++++++++++++++++++++++++++++++++++++++++++++++++++++
| SCF iteration number :    5                                                  +
++++++++++++++++++++++++++++++++++++++++++++++++++++++++++++++++++++++++++++++++
 Total energy                               :       -75.94811856
 _______________________________________________________________
 Fermi energy                               :         0.22488482
 Kinetic energy                             :        76.01980903
 Coulomb energy                             :      -141.18562954
 Exchange energy                            :       -10.36121586
 Correlation energy                         :        -0.42108219
 
 DOS at Fermi energy (states/Ha/cell)       :         1.44964756
 
 Electron charges :
     core                                   :         4.00000000
     core leakage                           :         0.00131079
     valence                                :         8.00000000
     interstitial                           :         4.78112275
     charge in muffin-tin spheres :
                  atom     1     C          :         3.60943863
                  atom     2     C          :         3.60943863
     total charge in muffin-tins            :         7.21887725
     total charge                           :        12.00000000
 
 Wall time (seconds)                        :       180.24
 
 RMS change in effective potential (target) :  0.324366E-01  ( 0.100000E-05)
 Absolute change in total energy   (target) :  0.772545      ( 0.100000E-06)
 Charge distance                   (target) :  0.124553E-01  ( 0.100000E-04)
 Abs. change in max-nonIBS-force   (target) :   0.00000      ( 0.250000E-05)
 
++++++++++++++++++++++++++++++++++++++++++++++++++++++++++++++++++++++++++++++++
| SCF iteration number :    6                                                  +
++++++++++++++++++++++++++++++++++++++++++++++++++++++++++++++++++++++++++++++++
 Total energy                               :       -76.20448522
 _______________________________________________________________
 Fermi energy                               :         0.21850895
 Kinetic energy                             :        75.85713605
 Coulomb energy                             :      -141.26703117
 Exchange energy                            :       -10.37389161
 Correlation energy                         :        -0.42069849
 
 DOS at Fermi energy (states/Ha/cell)       :         1.40857974
 
 Electron charges :
     core                                   :         4.00000000
     core leakage                           :         0.00130471
     valence                                :         8.00000000
     interstitial                           :         4.76066434
     charge in muffin-tin spheres :
                  atom     1     C          :         3.61966783
                  atom     2     C          :         3.61966783
     total charge in muffin-tins            :         7.23933566
     total charge                           :        12.00000000
 
 Wall time (seconds)                        :       216.37
 
 RMS change in effective potential (target) :  0.607583E-03  ( 0.100000E-05)
 Absolute change in total energy   (target) :  0.256367      ( 0.100000E-06)
 Charge distance                   (target) :  0.421847E-02  ( 0.100000E-04)
 Abs. change in max-nonIBS-force   (target) :   0.00000      ( 0.250000E-05)
 
++++++++++++++++++++++++++++++++++++++++++++++++++++++++++++++++++++++++++++++++
| SCF iteration number :    7                                                  +
++++++++++++++++++++++++++++++++++++++++++++++++++++++++++++++++++++++++++++++++
 Total energy                               :       -76.20583449
 _______________________________________________________________
 Fermi energy                               :         0.21846905
 Kinetic energy                             :        75.85651472
 Coulomb energy                             :      -141.26770263
 Exchange energy                            :       -10.37395124
 Correlation energy                         :        -0.42069533
 
 DOS at Fermi energy (states/Ha/cell)       :         1.40861229
 
 Electron charges :
     core                                   :         4.00000000
     core leakage                           :         0.00130460
     valence                                :         8.00000000
     interstitial                           :         4.76058054
     charge in muffin-tin spheres :
                  atom     1     C          :         3.61970973
                  atom     2     C          :         3.61970973
     total charge in muffin-tins            :         7.23941946
     total charge                           :        12.00000000
 
 Wall time (seconds)                        :       252.45
 
 RMS change in effective potential (target) :  0.142790E-03  ( 0.100000E-05)
 Absolute change in total energy   (target) :  0.134927E-02  ( 0.100000E-06)
 Charge distance                   (target) :  0.185251E-04  ( 0.100000E-04)
 Abs. change in max-nonIBS-force   (target) :   0.00000      ( 0.250000E-05)
 
++++++++++++++++++++++++++++++++++++++++++++++++++++++++++++++++++++++++++++++++
| SCF iteration number :    8                                                  +
++++++++++++++++++++++++++++++++++++++++++++++++++++++++++++++++++++++++++++++++
 Total energy                               :       -76.20639779
 _______________________________________________________________
 Fermi energy                               :         0.21845457
 Kinetic energy                             :        75.85608838
 Coulomb energy                             :      -141.26781392
 Exchange energy                            :       -10.37397746
 Correlation energy                         :        -0.42069478
 
 DOS at Fermi energy (states/Ha/cell)       :         1.40849024
 
 Electron charges :
     core                                   :         4.00000000
     core leakage                           :         0.00130460
     valence                                :         8.00000000
     interstitial                           :         4.76053492
     charge in muffin-tin spheres :
                  atom     1     C          :         3.61973254
                  atom     2     C          :         3.61973254
     total charge in muffin-tins            :         7.23946508
     total charge                           :        12.00000000
 
 Wall time (seconds)                        :       288.54
 
 RMS change in effective potential (target) :  0.195796E-04  ( 0.100000E-05)
 Absolute change in total energy   (target) :  0.563303E-03  ( 0.100000E-06)
 Charge distance                   (target) :  0.111257E-04  ( 0.100000E-04)
 Abs. change in max-nonIBS-force   (target) :   0.00000      ( 0.250000E-05)
 
++++++++++++++++++++++++++++++++++++++++++++++++++++++++++++++++++++++++++++++++
| SCF iteration number :    9                                                  +
++++++++++++++++++++++++++++++++++++++++++++++++++++++++++++++++++++++++++++++++
 Total energy                               :       -76.20627740
 _______________________________________________________________
 Fermi energy                               :         0.21845753
 Kinetic energy                             :        75.85616304
 Coulomb energy                             :      -141.26777391
 Exchange energy                            :       -10.37397156
 Correlation energy                         :        -0.42069497
 
 DOS at Fermi energy (states/Ha/cell)       :         1.40850726
 
 Electron charges :
     core                                   :         4.00000000
     core leakage                           :         0.00130461
     valence                                :         8.00000000
     interstitial                           :         4.76054433
     charge in muffin-tin spheres :
                  atom     1     C          :         3.61972784
                  atom     2     C          :         3.61972784
     total charge in muffin-tins            :         7.23945567
     total charge                           :        12.00000000
 
 Wall time (seconds)                        :       324.64
 
 RMS change in effective potential (target) :  0.141776E-05  ( 0.100000E-05)
 Absolute change in total energy   (target) :  0.120388E-03  ( 0.100000E-06)
 Charge distance                   (target) :  0.189643E-05  ( 0.100000E-04)
 Abs. change in max-nonIBS-force   (target) :   0.00000      ( 0.250000E-05)
 
++++++++++++++++++++++++++++++++++++++++++++++++++++++++++++++++++++++++++++++++
| SCF iteration number :   10                                                  +
++++++++++++++++++++++++++++++++++++++++++++++++++++++++++++++++++++++++++++++++
 Total energy                               :       -76.20627767
 _______________________________________________________________
 Fermi energy                               :         0.21845754
 Kinetic energy                             :        75.85616333
 Coulomb energy                             :      -141.26777444
 Exchange energy                            :       -10.37397159
 Correlation energy                         :        -0.42069496
 
 DOS at Fermi energy (states/Ha/cell)       :         1.40850738
 
 Electron charges :
     core                                   :         4.00000000
     core leakage                           :         0.00130461
     valence                                :         8.00000000
     interstitial                           :         4.76054431
     charge in muffin-tin spheres :
                  atom     1     C          :         3.61972785
                  atom     2     C          :         3.61972785
     total charge in muffin-tins            :         7.23945569
     total charge                           :        12.00000000
 
 Wall time (seconds)                        :       360.44
 
 RMS change in effective potential (target) :  0.419265E-07  ( 0.100000E-05)
 Absolute change in total energy   (target) :  0.268828E-06  ( 0.100000E-06)
 Charge distance                   (target) :  0.156679E-07  ( 0.100000E-04)
 Abs. change in max-nonIBS-force   (target) :   0.00000      ( 0.250000E-05)
 
++++++++++++++++++++++++++++++++++++++++++++++++++++++++++++++++++++++++++++++++
| SCF iteration number :   11                                                  +
++++++++++++++++++++++++++++++++++++++++++++++++++++++++++++++++++++++++++++++++
 Total energy                               :       -76.20627767
 _______________________________________________________________
 Fermi energy                               :         0.21845754
 Kinetic energy                             :        75.85616333
 Coulomb energy                             :      -141.26777444
 Exchange energy                            :       -10.37397159
 Correlation energy                         :        -0.42069496
 
 DOS at Fermi energy (states/Ha/cell)       :         1.40850738
 
 Electron charges :
     core                                   :         4.00000000
     core leakage                           :         0.00130461
     valence                                :         8.00000000
     interstitial                           :         4.76054431
     charge in muffin-tin spheres :
                  atom     1     C          :         3.61972785
                  atom     2     C          :         3.61972785
     total charge in muffin-tins            :         7.23945569
     total charge                           :        12.00000000
 
 Wall time (seconds)                        :       396.57
 
 RMS change in effective potential (target) :  0.224643E-07  ( 0.100000E-05)
 Absolute change in total energy   (target) :  0.356020E-08  ( 0.100000E-06)
 Charge distance                   (target) :  0.501474E-09  ( 0.100000E-04)
 Abs. change in max-nonIBS-force   (target) :   0.00000      ( 0.250000E-05)
 
++++++++++++++++++++++++++++++++++++++++++++++++++++++++++++++++++++++++++++++++
| Convergence targets achieved. Performing final SCF iteration                 +
++++++++++++++++++++++++++++++++++++++++++++++++++++++++++++++++++++++++++++++++
 Total energy                               :       -76.21493264
 _______________________________________________________________
 Fermi energy                               :         0.21845754
 Kinetic energy                             :        75.85616332
 Coulomb energy                             :      -141.26777444
 Exchange energy                            :       -10.37397159
 Correlation energy                         :        -0.42069496
 DFT-D2 dispersion correction               :        -0.00865496
 
 DOS at Fermi energy (states/Ha/cell)       :         1.40850738
 
 Electron charges :
     core                                   :         4.00000000
     core leakage                           :         0.00130461
     valence                                :         8.00000000
     interstitial                           :         4.76054431
     charge in muffin-tin spheres :
                  atom     1     C          :         3.61972785
                  atom     2     C          :         3.61972785
     total charge in muffin-tins            :         7.23945569
     total charge                           :        12.00000000
 
++++++++++++++++++++++++++++++++++++++++++++++++++++++++++++++++++++++++++++++++
| Self-consistent loop stopped                                                 +
++++++++++++++++++++++++++++++++++++++++++++++++++++++++++++++++++++++++++++++++
 STATE.OUT is written
 
--------------------------------------------------------------------------------
| Writing atomic positions and forces                                          -
--------------------------------------------------------------------------------
 
 Atomic positions (lattice) :
 atom     1   C  :     0.00000000    0.00000000    0.00000000
 atom     2   C  :     0.33333333    0.33333333    0.00000000
 
 Total atomic forces including IBS (cartesian) :
 atom     1   C  :     0.00000000    0.00000000    0.00000000
 atom     2   C  :     0.00000000    0.00000000    0.00000000
 
 Atomic force components including IBS (cartesian) :
 atom     1   C  :     0.00000000    0.00000000    0.00000000   HF force
                 :     0.00000000    0.00000000    0.00000000   core correction
                 :     0.00000000    0.00000000    0.00000000   IBS correction
                 :     0.00000000    0.00000000    0.00000000   DFT-D2 force
 atom     2   C  :     0.00000000    0.00000000    0.00000000   HF force
                 :     0.00000000    0.00000000    0.00000000   core correction
                 :     0.00000000    0.00000000    0.00000000   IBS correction
                 :     0.00000000    0.00000000    0.00000000   DFT-D2 force
 
********************************************************************************
| Groundstate module stopped                                                   *
********************************************************************************
 
********************************************************************************
| Structure-optimization module started                                        *
********************************************************************************
 Output level for this task is set to normal
 
 Maximum displacement tau_BFGS   is         :         0.3000
 Maximum displacement tau_newton is         :         0.8000
 Maximum force target reached already at the initial configuration
 
********************************************************************************
| Structure-optimization module stopped                                        *
********************************************************************************
 
 Total time spent (seconds)                 :       464.76
 
================================================================================
| EXCITING BORON stopped                                                       =
================================================================================
