================================================================================
| EXCITING BORON started                                                       =
| version hash id:                                                             =
| MPI version using     16 processor(s)                                        =
|                                                                              =
| Date (DD-MM-YYYY) : 09-08-2015                                               =
| Time (hh:mm:ss)   : 22:21:44                                                 =
|                                                                              =
| All units are atomic (Hartree, Bohr, etc.)                                   =
================================================================================
 
********************************************************************************
| Structural optimisation starting from atomic densities                       *
********************************************************************************
 
++++++++++++++++++++++++++++++++++++++++++++++++++++++++++++++++++++++++++++++++
| Starting initialization                                                      +
++++++++++++++++++++++++++++++++++++++++++++++++++++++++++++++++++++++++++++++++
 
 Lattice vectors (cartesian) :
      2.3270000000      4.0304822292      0.0000000000
     -2.3270000000      4.0304822292      0.0000000000
      0.0000000000      0.0000000000      6.5767595773
 
 Reciprocal lattice vectors (cartesian) :
      1.3500613036      0.7794582571      0.0000000000
     -1.3500613036      0.7794582571      0.0000000000
      0.0000000000      0.0000000000      0.9553618668
 
 Unit cell volume                           :     123.3659636500
 Brillouin zone volume                      :       2.0106859794
 
 Species :    1 (C)
     parameters loaded from                 :    C.xml
     name                                   :    carbon
     nuclear charge                         :      -6.00000000
     electronic charge                      :       6.00000000
     atomic mass                            :   21894.16673000
     muffin-tin radius                      :       1.20000000
     # of radial points in muffin-tin       :     250
 
     atomic positions (lattice) :
       1 :   0.00000000  0.00000000  0.00000000
       2 :   0.33333333  0.33333333  0.00000000
 
 Total number of atoms per unit cell        :       2
 
 Spin treatment                             :    spin-unpolarised
 
 Number of Bravais lattice symmetries       :      24
 Number of crystal symmetries               :      24
 
 k-point grid                               :      34   34   24
 Total number of k-points                   :    1482
 k-point set is reduced with crystal symmetries
 
 R^MT_min * |G+k|_max (rgkmax)              :       8.00000000
 Species with R^MT_min                      :       1 (C)
 Maximum |G+k| for APW functions            :       6.66666667
 Maximum |G| for potential and density      :      20.00000000
 
 G-vector grid sizes                        :      30    30    45
 Total number of G-vectors                  :   16667
 
 Maximum angular momentum used for
     APW functions                          :       8
     computing H and O matrix elements      :       8
     potential and density                  :       8
     inner part of muffin-tin               :       2
 
 Total nuclear charge                       :     -12.00000000
 Total electronic charge                    :      12.00000000
 Total core charge                          :       4.00000000
 Total valence charge                       :       8.00000000
 
 Number of empty states                     :       5
 Total number of valence states             :      10
 
 Maximum Hamiltonian size                   :     650
 Maximum number of plane-waves              :     642
 Total number of local-orbitals             :       8
 
 Exchange-correlation type                  :      20
     Perdew-Burke-Ernzerhof, Phys. Rev. Lett. 77, 3865 (1996)
     Generalised gradient approximation (GGA)
 
 Smearing scheme                            :    Gaussian
 Smearing width                             :       0.01000000
 
 Using multisecant Broyden potential mixing
 
++++++++++++++++++++++++++++++++++++++++++++++++++++++++++++++++++++++++++++++++
| Ending initialization                                                        +
++++++++++++++++++++++++++++++++++++++++++++++++++++++++++++++++++++++++++++++++
 
********************************************************************************
| Groundstate module started                                                   *
********************************************************************************
 Output level for this task is set to normal
 
++++++++++++++++++++++++++++++++++++++++++++++++++++++++++++++++++++++++++++++++
| Self-consistent loop started                                                 +
++++++++++++++++++++++++++++++++++++++++++++++++++++++++++++++++++++++++++++++++
 Density and potential initialised from atomic data
 
 
++++++++++++++++++++++++++++++++++++++++++++++++++++++++++++++++++++++++++++++++
| SCF iteration number :    1                                                  +
++++++++++++++++++++++++++++++++++++++++++++++++++++++++++++++++++++++++++++++++
 Total energy                               :       -78.35638657
 _______________________________________________________________
 Fermi energy                               :         0.16076637
 Kinetic energy                             :        74.49937072
 Coulomb energy                             :      -141.93474077
 Exchange energy                            :       -10.50192183
 Correlation energy                         :        -0.41909469
 
 DOS at Fermi energy (states/Ha/cell)       :         0.94775506
 
 Electron charges :
     core                                   :         4.00000000
     core leakage                           :         0.00128280
     valence                                :         8.00000000
     interstitial                           :         4.53575013
     charge in muffin-tin spheres :
                  atom     1     C          :         3.73212493
                  atom     2     C          :         3.73212493
     total charge in muffin-tins            :         7.46424987
     total charge                           :        12.00000000
 
 Wall time (seconds)                        :        37.60
 
++++++++++++++++++++++++++++++++++++++++++++++++++++++++++++++++++++++++++++++++
| SCF iteration number :    2                                                  +
++++++++++++++++++++++++++++++++++++++++++++++++++++++++++++++++++++++++++++++++
 Total energy                               :       -77.56678915
 _______________________________________________________________
 Fermi energy                               :         0.18280454
 Kinetic energy                             :        75.03551544
 Coulomb energy                             :      -141.71844876
 Exchange energy                            :       -10.46385127
 Correlation energy                         :        -0.42000456
 
 DOS at Fermi energy (states/Ha/cell)       :         1.01109517
 
 Electron charges :
     core                                   :         4.00000000
     core leakage                           :         0.00129515
     valence                                :         8.00000000
     interstitial                           :         4.59944520
     charge in muffin-tin spheres :
                  atom     1     C          :         3.70027740
                  atom     2     C          :         3.70027740
     total charge in muffin-tins            :         7.40055480
     total charge                           :        12.00000000
 
 Wall time (seconds)                        :        73.47
 
 RMS change in effective potential (target) :   1.60868      ( 0.100000E-05)
 Absolute change in total energy   (target) :  0.789597      ( 0.100000E-06)
 Charge distance                   (target) :  0.129534E-01  ( 0.100000E-04)
 Abs. change in max-nonIBS-force   (target) :   0.00000      ( 0.250000E-05)
 
++++++++++++++++++++++++++++++++++++++++++++++++++++++++++++++++++++++++++++++++
| SCF iteration number :    3                                                  +
++++++++++++++++++++++++++++++++++++++++++++++++++++++++++++++++++++++++++++++++
 Total energy                               :       -77.00765306
 _______________________________________________________________
 Fermi energy                               :         0.19783855
 Kinetic energy                             :        75.41170885
 Coulomb energy                             :      -141.56237222
 Exchange energy                            :       -10.43626980
 Correlation energy                         :        -0.42071989
 
 DOS at Fermi energy (states/Ha/cell)       :         1.06321725
 
 Electron charges :
     core                                   :         4.00000000
     core leakage                           :         0.00130311
     valence                                :         8.00000000
     interstitial                           :         4.64583235
     charge in muffin-tin spheres :
                  atom     1     C          :         3.67708382
                  atom     2     C          :         3.67708382
     total charge in muffin-tins            :         7.35416765
     total charge                           :        12.00000000
 
 Wall time (seconds)                        :       109.35
 
 RMS change in effective potential (target) :   1.18712      ( 0.100000E-05)
 Absolute change in total energy   (target) :  0.559136      ( 0.100000E-06)
 Charge distance                   (target) :  0.954740E-02  ( 0.100000E-04)
 Abs. change in max-nonIBS-force   (target) :   0.00000      ( 0.250000E-05)
 
++++++++++++++++++++++++++++++++++++++++++++++++++++++++++++++++++++++++++++++++
| SCF iteration number :    4                                                  +
++++++++++++++++++++++++++++++++++++++++++++++++++++++++++++++++++++++++++++++++
 Total energy                               :       -76.76354676
 _______________________________________________________________
 Fermi energy                               :         0.20373940
 Kinetic energy                             :        75.59072378
 Coulomb energy                             :      -141.51182136
 Exchange energy                            :       -10.42126105
 Correlation energy                         :        -0.42118813
 
 DOS at Fermi energy (states/Ha/cell)       :         1.09864369
 
 Electron charges :
     core                                   :         4.00000000
     core leakage                           :         0.00129538
     valence                                :         8.00000000
     interstitial                           :         4.67560916
     charge in muffin-tin spheres :
                  atom     1     C          :         3.66219542
                  atom     2     C          :         3.66219542
     total charge in muffin-tins            :         7.32439084
     total charge                           :        12.00000000
 
 Wall time (seconds)                        :       145.37
 
 RMS change in effective potential (target) :  0.670883E-01  ( 0.100000E-05)
 Absolute change in total energy   (target) :  0.244106      ( 0.100000E-06)
 Charge distance                   (target) :  0.665888E-02  ( 0.100000E-04)
 Abs. change in max-nonIBS-force   (target) :   0.00000      ( 0.250000E-05)
 
++++++++++++++++++++++++++++++++++++++++++++++++++++++++++++++++++++++++++++++++
| SCF iteration number :    5                                                  +
++++++++++++++++++++++++++++++++++++++++++++++++++++++++++++++++++++++++++++++++
 Total energy                               :       -75.93465002
 _______________________________________________________________
 Fermi energy                               :         0.22502685
 Kinetic energy                             :        76.12465114
 Coulomb energy                             :      -141.25568877
 Exchange energy                            :       -10.38131367
 Correlation energy                         :        -0.42229872
 
 DOS at Fermi energy (states/Ha/cell)       :         1.18905727
 
 Electron charges :
     core                                   :         4.00000000
     core leakage                           :         0.00131510
     valence                                :         8.00000000
     interstitial                           :         4.73992172
     charge in muffin-tin spheres :
                  atom     1     C          :         3.63003914
                  atom     2     C          :         3.63003914
     total charge in muffin-tins            :         7.26007828
     total charge                           :        12.00000000
 
 Wall time (seconds)                        :       181.26
 
 RMS change in effective potential (target) :  0.330924E-01  ( 0.100000E-05)
 Absolute change in total energy   (target) :  0.828897      ( 0.100000E-06)
 Charge distance                   (target) :  0.130957E-01  ( 0.100000E-04)
 Abs. change in max-nonIBS-force   (target) :   0.00000      ( 0.250000E-05)
 
++++++++++++++++++++++++++++++++++++++++++++++++++++++++++++++++++++++++++++++++
| SCF iteration number :    6                                                  +
++++++++++++++++++++++++++++++++++++++++++++++++++++++++++++++++++++++++++++++++
 Total energy                               :       -76.20582715
 _______________________________________________________________
 Fermi energy                               :         0.21820363
 Kinetic energy                             :        75.95036046
 Coulomb energy                             :      -141.33975358
 Exchange energy                            :       -10.39450689
 Correlation energy                         :        -0.42192714
 
 DOS at Fermi energy (states/Ha/cell)       :         1.15698064
 
 Electron charges :
     core                                   :         4.00000000
     core leakage                           :         0.00130887
     valence                                :         8.00000000
     interstitial                           :         4.71862323
     charge in muffin-tin spheres :
                  atom     1     C          :         3.64068839
                  atom     2     C          :         3.64068839
     total charge in muffin-tins            :         7.28137677
     total charge                           :        12.00000000
 
 Wall time (seconds)                        :       217.13
 
 RMS change in effective potential (target) :  0.639983E-03  ( 0.100000E-05)
 Absolute change in total energy   (target) :  0.271177      ( 0.100000E-06)
 Charge distance                   (target) :  0.437619E-02  ( 0.100000E-04)
 Abs. change in max-nonIBS-force   (target) :   0.00000      ( 0.250000E-05)
 
++++++++++++++++++++++++++++++++++++++++++++++++++++++++++++++++++++++++++++++++
| SCF iteration number :    7                                                  +
++++++++++++++++++++++++++++++++++++++++++++++++++++++++++++++++++++++++++++++++
 Total energy                               :       -76.20646898
 _______________________________________________________________
 Fermi energy                               :         0.21818329
 Kinetic energy                             :        75.95025647
 Coulomb energy                             :      -141.34026613
 Exchange energy                            :       -10.39453462
 Correlation energy                         :        -0.42192471
 
 DOS at Fermi energy (states/Ha/cell)       :         1.15709691
 
 Electron charges :
     core                                   :         4.00000000
     core leakage                           :         0.00130876
     valence                                :         8.00000000
     interstitial                           :         4.71859442
     charge in muffin-tin spheres :
                  atom     1     C          :         3.64070279
                  atom     2     C          :         3.64070279
     total charge in muffin-tins            :         7.28140558
     total charge                           :        12.00000000
 
 Wall time (seconds)                        :       253.35
 
 RMS change in effective potential (target) :  0.162913E-03  ( 0.100000E-05)
 Absolute change in total energy   (target) :  0.641837E-03  ( 0.100000E-06)
 Charge distance                   (target) :  0.196725E-04  ( 0.100000E-04)
 Abs. change in max-nonIBS-force   (target) :   0.00000      ( 0.250000E-05)
 
++++++++++++++++++++++++++++++++++++++++++++++++++++++++++++++++++++++++++++++++
| SCF iteration number :    8                                                  +
++++++++++++++++++++++++++++++++++++++++++++++++++++++++++++++++++++++++++++++++
 Total energy                               :       -76.20720437
 _______________________________________________________________
 Fermi energy                               :         0.21816396
 Kinetic energy                             :        75.94970180
 Coulomb energy                             :      -141.34041402
 Exchange energy                            :       -10.39456809
 Correlation energy                         :        -0.42192406
 
 DOS at Fermi energy (states/Ha/cell)       :         1.15698416
 
 Electron charges :
     core                                   :         4.00000000
     core leakage                           :         0.00130876
     valence                                :         8.00000000
     interstitial                           :         4.71853659
     charge in muffin-tin spheres :
                  atom     1     C          :         3.64073170
                  atom     2     C          :         3.64073170
     total charge in muffin-tins            :         7.28146341
     total charge                           :        12.00000000
 
 Wall time (seconds)                        :       289.17
 
 RMS change in effective potential (target) :  0.231975E-04  ( 0.100000E-05)
 Absolute change in total energy   (target) :  0.735383E-03  ( 0.100000E-06)
 Charge distance                   (target) :  0.137454E-04  ( 0.100000E-04)
 Abs. change in max-nonIBS-force   (target) :   0.00000      ( 0.250000E-05)
 
++++++++++++++++++++++++++++++++++++++++++++++++++++++++++++++++++++++++++++++++
| SCF iteration number :    9                                                  +
++++++++++++++++++++++++++++++++++++++++++++++++++++++++++++++++++++++++++++++++
 Total energy                               :       -76.20707862
 _______________________________________________________________
 Fermi energy                               :         0.21816706
 Kinetic energy                             :        75.94977978
 Coulomb energy                             :      -141.34037216
 Exchange energy                            :       -10.39456199
 Correlation energy                         :        -0.42192424
 
 DOS at Fermi energy (states/Ha/cell)       :         1.15699677
 
 Electron charges :
     core                                   :         4.00000000
     core leakage                           :         0.00130877
     valence                                :         8.00000000
     interstitial                           :         4.71854627
     charge in muffin-tin spheres :
                  atom     1     C          :         3.64072687
                  atom     2     C          :         3.64072687
     total charge in muffin-tins            :         7.28145373
     total charge                           :        12.00000000
 
 Wall time (seconds)                        :       324.96
 
 RMS change in effective potential (target) :  0.162672E-05  ( 0.100000E-05)
 Absolute change in total energy   (target) :  0.125750E-03  ( 0.100000E-06)
 Charge distance                   (target) :  0.193346E-05  ( 0.100000E-04)
 Abs. change in max-nonIBS-force   (target) :   0.00000      ( 0.250000E-05)
 
++++++++++++++++++++++++++++++++++++++++++++++++++++++++++++++++++++++++++++++++
| SCF iteration number :   10                                                  +
++++++++++++++++++++++++++++++++++++++++++++++++++++++++++++++++++++++++++++++++
 Total energy                               :       -76.20707907
 _______________________________________________________________
 Fermi energy                               :         0.21816707
 Kinetic energy                             :        75.94978001
 Coulomb energy                             :      -141.34037280
 Exchange energy                            :       -10.39456203
 Correlation energy                         :        -0.42192424
 
 DOS at Fermi energy (states/Ha/cell)       :         1.15699686
 
 Electron charges :
     core                                   :         4.00000000
     core leakage                           :         0.00130877
     valence                                :         8.00000000
     interstitial                           :         4.71854623
     charge in muffin-tin spheres :
                  atom     1     C          :         3.64072688
                  atom     2     C          :         3.64072688
     total charge in muffin-tins            :         7.28145377
     total charge                           :        12.00000000
 
 Wall time (seconds)                        :       360.80
 
 RMS change in effective potential (target) :  0.572484E-07  ( 0.100000E-05)
 Absolute change in total energy   (target) :  0.450862E-06  ( 0.100000E-06)
 Charge distance                   (target) :  0.166458E-07  ( 0.100000E-04)
 Abs. change in max-nonIBS-force   (target) :   0.00000      ( 0.250000E-05)
 
++++++++++++++++++++++++++++++++++++++++++++++++++++++++++++++++++++++++++++++++
| SCF iteration number :   11                                                  +
++++++++++++++++++++++++++++++++++++++++++++++++++++++++++++++++++++++++++++++++
 Total energy                               :       -76.20707905
 _______________________________________________________________
 Fermi energy                               :         0.21816707
 Kinetic energy                             :        75.94978001
 Coulomb energy                             :      -141.34037279
 Exchange energy                            :       -10.39456203
 Correlation energy                         :        -0.42192424
 
 DOS at Fermi energy (states/Ha/cell)       :         1.15699686
 
 Electron charges :
     core                                   :         4.00000000
     core leakage                           :         0.00130877
     valence                                :         8.00000000
     interstitial                           :         4.71854623
     charge in muffin-tin spheres :
                  atom     1     C          :         3.64072688
                  atom     2     C          :         3.64072688
     total charge in muffin-tins            :         7.28145377
     total charge                           :        12.00000000
 
 Wall time (seconds)                        :       396.66
 
 RMS change in effective potential (target) :  0.279765E-08  ( 0.100000E-05)
 Absolute change in total energy   (target) :  0.210215E-07  ( 0.100000E-06)
 Charge distance                   (target) :  0.526159E-09  ( 0.100000E-04)
 Abs. change in max-nonIBS-force   (target) :   0.00000      ( 0.250000E-05)
 
++++++++++++++++++++++++++++++++++++++++++++++++++++++++++++++++++++++++++++++++
| Convergence targets achieved. Performing final SCF iteration                 +
++++++++++++++++++++++++++++++++++++++++++++++++++++++++++++++++++++++++++++++++
 Total energy                               :       -76.21545980
 _______________________________________________________________
 Fermi energy                               :         0.21816707
 Kinetic energy                             :        75.94978000
 Coulomb energy                             :      -141.34037279
 Exchange energy                            :       -10.39456203
 Correlation energy                         :        -0.42192424
 DFT-D2 dispersion correction               :        -0.00838074
 
 DOS at Fermi energy (states/Ha/cell)       :         1.15699686
 
 Electron charges :
     core                                   :         4.00000000
     core leakage                           :         0.00130877
     valence                                :         8.00000000
     interstitial                           :         4.71854623
     charge in muffin-tin spheres :
                  atom     1     C          :         3.64072688
                  atom     2     C          :         3.64072688
     total charge in muffin-tins            :         7.28145377
     total charge                           :        12.00000000
 
++++++++++++++++++++++++++++++++++++++++++++++++++++++++++++++++++++++++++++++++
| Self-consistent loop stopped                                                 +
++++++++++++++++++++++++++++++++++++++++++++++++++++++++++++++++++++++++++++++++
 STATE.OUT is written
 
--------------------------------------------------------------------------------
| Writing atomic positions and forces                                          -
--------------------------------------------------------------------------------
 
 Atomic positions (lattice) :
 atom     1   C  :     0.00000000    0.00000000    0.00000000
 atom     2   C  :     0.33333333    0.33333333    0.00000000
 
 Total atomic forces including IBS (cartesian) :
 atom     1   C  :     0.00000000    0.00000000    0.00000000
 atom     2   C  :     0.00000000    0.00000000    0.00000000
 
 Atomic force components including IBS (cartesian) :
 atom     1   C  :     0.00000000    0.00000000    0.00000000   HF force
                 :     0.00000000    0.00000000    0.00000000   core correction
                 :     0.00000000    0.00000000    0.00000000   IBS correction
                 :     0.00000000    0.00000000    0.00000000   DFT-D2 force
 atom     2   C  :     0.00000000    0.00000000    0.00000000   HF force
                 :     0.00000000    0.00000000    0.00000000   core correction
                 :     0.00000000    0.00000000    0.00000000   IBS correction
                 :     0.00000000    0.00000000    0.00000000   DFT-D2 force
 
********************************************************************************
| Groundstate module stopped                                                   *
********************************************************************************
 
********************************************************************************
| Structure-optimization module started                                        *
********************************************************************************
 Output level for this task is set to normal
 
 Maximum displacement tau_BFGS   is         :         0.3000
 Maximum displacement tau_newton is         :         0.8000
 Maximum force target reached already at the initial configuration
 
********************************************************************************
| Structure-optimization module stopped                                        *
********************************************************************************
 
 Total time spent (seconds)                 :       463.92
 
================================================================================
| EXCITING BORON stopped                                                       =
================================================================================
