================================================================================
| EXCITING BORON started                                                       =
| version hash id:                                                             =
| MPI version using     16 processor(s)                                        =
|                                                                              =
| Date (DD-MM-YYYY) : 09-08-2015                                               =
| Time (hh:mm:ss)   : 22:07:38                                                 =
|                                                                              =
| All units are atomic (Hartree, Bohr, etc.)                                   =
================================================================================
 
********************************************************************************
| Structural optimisation starting from atomic densities                       *
********************************************************************************
 
++++++++++++++++++++++++++++++++++++++++++++++++++++++++++++++++++++++++++++++++
| Starting initialization                                                      +
++++++++++++++++++++++++++++++++++++++++++++++++++++++++++++++++++++++++++++++++
 
 Lattice vectors (cartesian) :
      2.2075860346      3.8236511739      0.0000000000
     -2.2075860346      3.8236511739      0.0000000000
      0.0000000000      0.0000000000      6.2386381337
 
 Reciprocal lattice vectors (cartesian) :
      1.4230895668      0.8216211445      0.0000000000
     -1.4230895668      0.8216211445      0.0000000000
      0.0000000000      0.0000000000      1.0071405285
 
 Unit cell volume                           :     105.3211747459
 Brillouin zone volume                      :       2.3551789471
 
 Species :    1 (C)
     parameters loaded from                 :    C.xml
     name                                   :    carbon
     nuclear charge                         :      -6.00000000
     electronic charge                      :       6.00000000
     atomic mass                            :   21894.16673000
     muffin-tin radius                      :       1.20000000
     # of radial points in muffin-tin       :     250
 
     atomic positions (lattice) :
       1 :   0.00000000  0.00000000  0.00000000
       2 :   0.33333333  0.33333333  0.00000000
 
 Total number of atoms per unit cell        :       2
 
 Spin treatment                             :    spin-unpolarised
 
 Number of Bravais lattice symmetries       :      24
 Number of crystal symmetries               :      24
 
 k-point grid                               :      34   34   24
 Total number of k-points                   :    1482
 k-point set is reduced with crystal symmetries
 
 R^MT_min * |G+k|_max (rgkmax)              :       8.00000000
 Species with R^MT_min                      :       1 (C)
 Maximum |G+k| for APW functions            :       6.66666667
 Maximum |G| for potential and density      :      20.00000000
 
 G-vector grid sizes                        :      30    30    40
 Total number of G-vectors                  :   14217
 
 Maximum angular momentum used for
     APW functions                          :       8
     computing H and O matrix elements      :       8
     potential and density                  :       8
     inner part of muffin-tin               :       2
 
 Total nuclear charge                       :     -12.00000000
 Total electronic charge                    :      12.00000000
 Total core charge                          :       4.00000000
 Total valence charge                       :       8.00000000
 
 Number of empty states                     :       5
 Total number of valence states             :      10
 
 Maximum Hamiltonian size                   :     561
 Maximum number of plane-waves              :     553
 Total number of local-orbitals             :       8
 
 Exchange-correlation type                  :      20
     Perdew-Burke-Ernzerhof, Phys. Rev. Lett. 77, 3865 (1996)
     Generalised gradient approximation (GGA)
 
 Smearing scheme                            :    Gaussian
 Smearing width                             :       0.01000000
 
 Using multisecant Broyden potential mixing
 
++++++++++++++++++++++++++++++++++++++++++++++++++++++++++++++++++++++++++++++++
| Ending initialization                                                        +
++++++++++++++++++++++++++++++++++++++++++++++++++++++++++++++++++++++++++++++++
 
********************************************************************************
| Groundstate module started                                                   *
********************************************************************************
 Output level for this task is set to normal
 
++++++++++++++++++++++++++++++++++++++++++++++++++++++++++++++++++++++++++++++++
| Self-consistent loop started                                                 +
++++++++++++++++++++++++++++++++++++++++++++++++++++++++++++++++++++++++++++++++
 Density and potential initialised from atomic data
 
 
++++++++++++++++++++++++++++++++++++++++++++++++++++++++++++++++++++++++++++++++
| SCF iteration number :    1                                                  +
++++++++++++++++++++++++++++++++++++++++++++++++++++++++++++++++++++++++++++++++
 Total energy                               :       -78.89985039
 _______________________________________________________________
 Fermi energy                               :         0.21196758
 Kinetic energy                             :        74.70101565
 Coulomb energy                             :      -142.52613101
 Exchange energy                            :       -10.64706864
 Correlation energy                         :        -0.42766640
 
 DOS at Fermi energy (states/Ha/cell)       :         0.85341524
 
 Electron charges :
     core                                   :         4.00000000
     core leakage                           :         0.00129564
     valence                                :         8.00000000
     interstitial                           :         4.23591724
     charge in muffin-tin spheres :
                  atom     1     C          :         3.88204138
                  atom     2     C          :         3.88204138
     total charge in muffin-tins            :         7.76408276
     total charge                           :        12.00000000
 
 Wall time (seconds)                        :        26.22
 
++++++++++++++++++++++++++++++++++++++++++++++++++++++++++++++++++++++++++++++++
| SCF iteration number :    2                                                  +
++++++++++++++++++++++++++++++++++++++++++++++++++++++++++++++++++++++++++++++++
 Total energy                               :       -77.91212544
 _______________________________________________________________
 Fermi energy                               :         0.23879642
 Kinetic energy                             :        75.37505162
 Coulomb energy                             :      -142.25787346
 Exchange energy                            :       -10.60046510
 Correlation energy                         :        -0.42883850
 
 DOS at Fermi energy (states/Ha/cell)       :         0.92345183
 
 Electron charges :
     core                                   :         4.00000000
     core leakage                           :         0.00131273
     valence                                :         8.00000000
     interstitial                           :         4.31474759
     charge in muffin-tin spheres :
                  atom     1     C          :         3.84262620
                  atom     2     C          :         3.84262620
     total charge in muffin-tins            :         7.68525241
     total charge                           :        12.00000000
 
 Wall time (seconds)                        :        51.20
 
 RMS change in effective potential (target) :   1.68182      ( 0.100000E-05)
 Absolute change in total energy   (target) :  0.987725      ( 0.100000E-06)
 Charge distance                   (target) :  0.153476E-01  ( 0.100000E-04)
 Abs. change in max-nonIBS-force   (target) :   0.00000      ( 0.250000E-05)
 
++++++++++++++++++++++++++++++++++++++++++++++++++++++++++++++++++++++++++++++++
| SCF iteration number :    3                                                  +
++++++++++++++++++++++++++++++++++++++++++++++++++++++++++++++++++++++++++++++++
 Total energy                               :       -77.20906281
 _______________________________________________________________
 Fermi energy                               :         0.25701785
 Kinetic energy                             :        75.84987299
 Coulomb energy                             :      -142.06269224
 Exchange energy                            :       -10.56647091
 Correlation energy                         :        -0.42977265
 
 DOS at Fermi energy (states/Ha/cell)       :         0.98534851
 
 Electron charges :
     core                                   :         4.00000000
     core leakage                           :         0.00132406
     valence                                :         8.00000000
     interstitial                           :         4.37281984
     charge in muffin-tin spheres :
                  atom     1     C          :         3.81359008
                  atom     2     C          :         3.81359008
     total charge in muffin-tins            :         7.62718016
     total charge                           :        12.00000000
 
 Wall time (seconds)                        :        76.50
 
 RMS change in effective potential (target) :   1.24512      ( 0.100000E-05)
 Absolute change in total energy   (target) :  0.703063      ( 0.100000E-06)
 Charge distance                   (target) :  0.114272E-01  ( 0.100000E-04)
 Abs. change in max-nonIBS-force   (target) :   0.00000      ( 0.250000E-05)
 
++++++++++++++++++++++++++++++++++++++++++++++++++++++++++++++++++++++++++++++++
| SCF iteration number :    4                                                  +
++++++++++++++++++++++++++++++++++++++++++++++++++++++++++++++++++++++++++++++++
 Total energy                               :       -76.86404179
 _______________________________________________________________
 Fermi energy                               :         0.26459161
 Kinetic energy                             :        76.09571645
 Coulomb energy                             :      -141.98331159
 Exchange energy                            :       -10.54600511
 Correlation energy                         :        -0.43044154
 
 DOS at Fermi energy (states/Ha/cell)       :         1.03647095
 
 Electron charges :
     core                                   :         4.00000000
     core leakage                           :         0.00131749
     valence                                :         8.00000000
     interstitial                           :         4.41340320
     charge in muffin-tin spheres :
                  atom     1     C          :         3.79329840
                  atom     2     C          :         3.79329840
     total charge in muffin-tins            :         7.58659680
     total charge                           :        12.00000000
 
 Wall time (seconds)                        :       101.69
 
 RMS change in effective potential (target) :  0.872446E-01  ( 0.100000E-05)
 Absolute change in total energy   (target) :  0.345021      ( 0.100000E-06)
 Charge distance                   (target) :  0.841693E-02  ( 0.100000E-04)
 Abs. change in max-nonIBS-force   (target) :   0.00000      ( 0.250000E-05)
 
++++++++++++++++++++++++++++++++++++++++++++++++++++++++++++++++++++++++++++++++
| SCF iteration number :    5                                                  +
++++++++++++++++++++++++++++++++++++++++++++++++++++++++++++++++++++++++++++++++
 Total energy                               :       -75.90315444
 _______________________________________________________________
 Fermi energy                               :         0.28828962
 Kinetic energy                             :        76.71809098
 Coulomb energy                             :      -141.68893443
 Exchange energy                            :       -10.50050394
 Correlation energy                         :        -0.43180705
 
 DOS at Fermi energy (states/Ha/cell)       :         1.15261591
 
 Electron charges :
     core                                   :         4.00000000
     core leakage                           :         0.00134112
     valence                                :         8.00000000
     interstitial                           :         4.48810806
     charge in muffin-tin spheres :
                  atom     1     C          :         3.75594597
                  atom     2     C          :         3.75594597
     total charge in muffin-tins            :         7.51189194
     total charge                           :        12.00000000
 
 Wall time (seconds)                        :       126.96
 
 RMS change in effective potential (target) :  0.361416E-01  ( 0.100000E-05)
 Absolute change in total energy   (target) :  0.960887      ( 0.100000E-06)
 Charge distance                   (target) :  0.146759E-01  ( 0.100000E-04)
 Abs. change in max-nonIBS-force   (target) :   0.00000      ( 0.250000E-05)
 
++++++++++++++++++++++++++++++++++++++++++++++++++++++++++++++++++++++++++++++++
| SCF iteration number :    6                                                  +
++++++++++++++++++++++++++++++++++++++++++++++++++++++++++++++++++++++++++++++++
 Total energy                               :       -76.19091954
 _______________________________________________________________
 Fermi energy                               :         0.28140801
 Kinetic energy                             :        76.53204649
 Coulomb energy                             :      -141.77725397
 Exchange energy                            :       -10.51432370
 Correlation energy                         :        -0.43138836
 
 DOS at Fermi energy (states/Ha/cell)       :         1.11274592
 
 Electron charges :
     core                                   :         4.00000000
     core leakage                           :         0.00133444
     valence                                :         8.00000000
     interstitial                           :         4.46529953
     charge in muffin-tin spheres :
                  atom     1     C          :         3.76735023
                  atom     2     C          :         3.76735023
     total charge in muffin-tins            :         7.53470047
     total charge                           :        12.00000000
 
 Wall time (seconds)                        :       152.18
 
 RMS change in effective potential (target) :  0.976669E-03  ( 0.100000E-05)
 Absolute change in total energy   (target) :  0.287765      ( 0.100000E-06)
 Charge distance                   (target) :  0.453119E-02  ( 0.100000E-04)
 Abs. change in max-nonIBS-force   (target) :   0.00000      ( 0.250000E-05)
 
++++++++++++++++++++++++++++++++++++++++++++++++++++++++++++++++++++++++++++++++
| SCF iteration number :    7                                                  +
++++++++++++++++++++++++++++++++++++++++++++++++++++++++++++++++++++++++++++++++
 Total energy                               :       -76.18886462
 _______________________________________________________________
 Fermi energy                               :         0.28145085
 Kinetic energy                             :        76.53387511
 Coulomb energy                             :      -141.77712927
 Exchange energy                            :       -10.51422162
 Correlation energy                         :        -0.43138883
 
 DOS at Fermi energy (states/Ha/cell)       :         1.11337316
 
 Electron charges :
     core                                   :         4.00000000
     core leakage                           :         0.00133434
     valence                                :         8.00000000
     interstitial                           :         4.46549793
     charge in muffin-tin spheres :
                  atom     1     C          :         3.76725103
                  atom     2     C          :         3.76725103
     total charge in muffin-tins            :         7.53450207
     total charge                           :        12.00000000
 
 Wall time (seconds)                        :       177.39
 
 RMS change in effective potential (target) :  0.213546E-03  ( 0.100000E-05)
 Absolute change in total energy   (target) :  0.205492E-02  ( 0.100000E-06)
 Charge distance                   (target) :  0.609582E-04  ( 0.100000E-04)
 Abs. change in max-nonIBS-force   (target) :   0.00000      ( 0.250000E-05)
 
++++++++++++++++++++++++++++++++++++++++++++++++++++++++++++++++++++++++++++++++
| SCF iteration number :    8                                                  +
++++++++++++++++++++++++++++++++++++++++++++++++++++++++++++++++++++++++++++++++
 Total energy                               :       -76.19039652
 _______________________________________________________________
 Fermi energy                               :         0.28141277
 Kinetic energy                             :        76.53276010
 Coulomb energy                             :      -141.77747846
 Exchange energy                            :       -10.51429099
 Correlation energy                         :        -0.43138718
 
 DOS at Fermi energy (states/Ha/cell)       :         1.11312793
 
 Electron charges :
     core                                   :         4.00000000
     core leakage                           :         0.00133433
     valence                                :         8.00000000
     interstitial                           :         4.46537717
     charge in muffin-tin spheres :
                  atom     1     C          :         3.76731142
                  atom     2     C          :         3.76731142
     total charge in muffin-tins            :         7.53462283
     total charge                           :        12.00000000
 
 Wall time (seconds)                        :       202.60
 
 RMS change in effective potential (target) :  0.330724E-04  ( 0.100000E-05)
 Absolute change in total energy   (target) :  0.153191E-02  ( 0.100000E-06)
 Charge distance                   (target) :  0.263640E-04  ( 0.100000E-04)
 Abs. change in max-nonIBS-force   (target) :   0.00000      ( 0.250000E-05)
 
++++++++++++++++++++++++++++++++++++++++++++++++++++++++++++++++++++++++++++++++
| SCF iteration number :    9                                                  +
++++++++++++++++++++++++++++++++++++++++++++++++++++++++++++++++++++++++++++++++
 Total energy                               :       -76.19031323
 _______________________________________________________________
 Fermi energy                               :         0.28141454
 Kinetic energy                             :        76.53280604
 Coulomb energy                             :      -141.77744510
 Exchange energy                            :       -10.51428684
 Correlation energy                         :        -0.43138733
 
 DOS at Fermi energy (states/Ha/cell)       :         1.11313543
 
 Electron charges :
     core                                   :         4.00000000
     core leakage                           :         0.00133434
     valence                                :         8.00000000
     interstitial                           :         4.46538350
     charge in muffin-tin spheres :
                  atom     1     C          :         3.76730825
                  atom     2     C          :         3.76730825
     total charge in muffin-tins            :         7.53461650
     total charge                           :        12.00000000
 
 Wall time (seconds)                        :       227.87
 
 RMS change in effective potential (target) :  0.173490E-05  ( 0.100000E-05)
 Absolute change in total energy   (target) :  0.832977E-04  ( 0.100000E-06)
 Charge distance                   (target) :  0.118670E-05  ( 0.100000E-04)
 Abs. change in max-nonIBS-force   (target) :   0.00000      ( 0.250000E-05)
 
++++++++++++++++++++++++++++++++++++++++++++++++++++++++++++++++++++++++++++++++
| SCF iteration number :   10                                                  +
++++++++++++++++++++++++++++++++++++++++++++++++++++++++++++++++++++++++++++++++
 Total energy                               :       -76.19031314
 _______________________________________________________________
 Fermi energy                               :         0.28141458
 Kinetic energy                             :        76.53280659
 Coulomb energy                             :      -141.77744554
 Exchange energy                            :       -10.51428686
 Correlation energy                         :        -0.43138733
 
 DOS at Fermi energy (states/Ha/cell)       :         1.11313555
 
 Electron charges :
     core                                   :         4.00000000
     core leakage                           :         0.00133433
     valence                                :         8.00000000
     interstitial                           :         4.46538351
     charge in muffin-tin spheres :
                  atom     1     C          :         3.76730825
                  atom     2     C          :         3.76730825
     total charge in muffin-tins            :         7.53461649
     total charge                           :        12.00000000
 
 Wall time (seconds)                        :       253.16
 
 RMS change in effective potential (target) :  0.418280E-07  ( 0.100000E-05)
 Absolute change in total energy   (target) :  0.897718E-07  ( 0.100000E-06)
 Charge distance                   (target) :  0.111369E-07  ( 0.100000E-04)
 Abs. change in max-nonIBS-force   (target) :   0.00000      ( 0.250000E-05)
 
++++++++++++++++++++++++++++++++++++++++++++++++++++++++++++++++++++++++++++++++
| Convergence targets achieved. Performing final SCF iteration                 +
++++++++++++++++++++++++++++++++++++++++++++++++++++++++++++++++++++++++++++++++
 Total energy                               :       -76.20048294
 _______________________________________________________________
 Fermi energy                               :         0.28141458
 Kinetic energy                             :        76.53280674
 Coulomb energy                             :      -141.77744552
 Exchange energy                            :       -10.51428685
 Correlation energy                         :        -0.43138733
 DFT-D2 dispersion correction               :        -0.01016999
 
 DOS at Fermi energy (states/Ha/cell)       :         1.11313559
 
 Electron charges :
     core                                   :         4.00000000
     core leakage                           :         0.00133433
     valence                                :         8.00000000
     interstitial                           :         4.46538352
     charge in muffin-tin spheres :
                  atom     1     C          :         3.76730824
                  atom     2     C          :         3.76730824
     total charge in muffin-tins            :         7.53461648
     total charge                           :        12.00000000
 
++++++++++++++++++++++++++++++++++++++++++++++++++++++++++++++++++++++++++++++++
| Self-consistent loop stopped                                                 +
++++++++++++++++++++++++++++++++++++++++++++++++++++++++++++++++++++++++++++++++
 STATE.OUT is written
 
--------------------------------------------------------------------------------
| Writing atomic positions and forces                                          -
--------------------------------------------------------------------------------
 
 Atomic positions (lattice) :
 atom     1   C  :     0.00000000    0.00000000    0.00000000
 atom     2   C  :     0.33333333    0.33333333    0.00000000
 
 Total atomic forces including IBS (cartesian) :
 atom     1   C  :     0.00000000    0.00000000    0.00000000
 atom     2   C  :     0.00000000    0.00000000    0.00000000
 
 Atomic force components including IBS (cartesian) :
 atom     1   C  :     0.00000000    0.00000000    0.00000000   HF force
                 :     0.00000000    0.00000000    0.00000000   core correction
                 :     0.00000000    0.00000000    0.00000000   IBS correction
                 :     0.00000000    0.00000000    0.00000000   DFT-D2 force
 atom     2   C  :     0.00000000    0.00000000    0.00000000   HF force
                 :     0.00000000    0.00000000    0.00000000   core correction
                 :     0.00000000    0.00000000    0.00000000   IBS correction
                 :     0.00000000    0.00000000    0.00000000   DFT-D2 force
 
********************************************************************************
| Groundstate module stopped                                                   *
********************************************************************************
 
********************************************************************************
| Structure-optimization module started                                        *
********************************************************************************
 Output level for this task is set to normal
 
 Maximum displacement tau_BFGS   is         :         0.3000
 Maximum displacement tau_newton is         :         0.8000
 Maximum force target reached already at the initial configuration
 
********************************************************************************
| Structure-optimization module stopped                                        *
********************************************************************************
 
 Total time spent (seconds)                 :       301.48
 
================================================================================
| EXCITING BORON stopped                                                       =
================================================================================
