================================================================================
| EXCITING BORON started                                                       =
| version hash id:                                                             =
| MPI version using     16 processor(s)                                        =
|                                                                              =
| Date (DD-MM-YYYY) : 09-08-2015                                               =
| Time (hh:mm:ss)   : 23:39:08                                                 =
|                                                                              =
| All units are atomic (Hartree, Bohr, etc.)                                   =
================================================================================
 
********************************************************************************
| Structural optimisation starting from atomic densities                       *
********************************************************************************
 
++++++++++++++++++++++++++++++++++++++++++++++++++++++++++++++++++++++++++++++++
| Starting initialization                                                      +
++++++++++++++++++++++++++++++++++++++++++++++++++++++++++++++++++++++++++++++++
 
 Lattice vectors (cartesian) :
      2.3270000000      4.0256674823      0.1969475106
     -2.3270000000      4.0256674823      0.1969475106
      0.0000000000      0.3213379553      6.8895842534
 
 Reciprocal lattice vectors (cartesian) :
      1.3500613036      0.7821752827     -0.0364815346
     -1.3500613036      0.7821752827     -0.0364815346
      0.0000000000     -0.0447189465      0.9140689729
 
 Unit cell volume                           :     128.7849694748
 Brillouin zone volume                      :       1.9260804615
 
 Species :    1 (C)
     parameters loaded from                 :    C.xml
     name                                   :    carbon
     nuclear charge                         :      -6.00000000
     electronic charge                      :       6.00000000
     atomic mass                            :   21894.16673000
     muffin-tin radius                      :       1.20000000
     # of radial points in muffin-tin       :     250
 
     atomic positions (lattice) :
       1 :   0.00000000  0.00000000  0.00000000
       2 :   0.33333333  0.33333333  0.00000000
 
 Total number of atoms per unit cell        :       2
 
 Spin treatment                             :    spin-unpolarised
 
 Number of Bravais lattice symmetries       :       4
 Number of crystal symmetries               :       4
 
 k-point grid                               :      34   34   24
 Total number of k-points                   :    7159
 k-point set is reduced with crystal symmetries
 
 R^MT_min * |G+k|_max (rgkmax)              :       8.00000000
 Species with R^MT_min                      :       1 (C)
 Maximum |G+k| for APW functions            :       6.66666667
 Maximum |G| for potential and density      :      20.00000000
 
 G-vector grid sizes                        :      30    30    45
 Total number of G-vectors                  :   17401
 
 Maximum angular momentum used for
     APW functions                          :       8
     computing H and O matrix elements      :       8
     potential and density                  :       8
     inner part of muffin-tin               :       2
 
 Total nuclear charge                       :     -12.00000000
 Total electronic charge                    :      12.00000000
 Total core charge                          :       4.00000000
 Total valence charge                       :       8.00000000
 
 Number of empty states                     :       5
 Total number of valence states             :      10
 
 Maximum Hamiltonian size                   :     673
 Maximum number of plane-waves              :     665
 Total number of local-orbitals             :       8
 
 Exchange-correlation type                  :      20
     Perdew-Burke-Ernzerhof, Phys. Rev. Lett. 77, 3865 (1996)
     Generalised gradient approximation (GGA)
 
 Smearing scheme                            :    Gaussian
 Smearing width                             :       0.01000000
 
 Using multisecant Broyden potential mixing
 
++++++++++++++++++++++++++++++++++++++++++++++++++++++++++++++++++++++++++++++++
| Ending initialization                                                        +
++++++++++++++++++++++++++++++++++++++++++++++++++++++++++++++++++++++++++++++++
 
********************************************************************************
| Groundstate module started                                                   *
********************************************************************************
 Output level for this task is set to normal
 
++++++++++++++++++++++++++++++++++++++++++++++++++++++++++++++++++++++++++++++++
| Self-consistent loop started                                                 +
++++++++++++++++++++++++++++++++++++++++++++++++++++++++++++++++++++++++++++++++
 Density and potential initialised from atomic data
 
 
++++++++++++++++++++++++++++++++++++++++++++++++++++++++++++++++++++++++++++++++
| SCF iteration number :    1                                                  +
++++++++++++++++++++++++++++++++++++++++++++++++++++++++++++++++++++++++++++++++
 Total energy                               :       -78.43100277
 _______________________________________________________________
 Fermi energy                               :         0.14147215
 Kinetic energy                             :        74.42499376
 Coulomb energy                             :      -141.93486477
 Exchange energy                            :       -10.50236501
 Correlation energy                         :        -0.41876675
 
 DOS at Fermi energy (states/Ha/cell)       :         0.73478100
 
 Electron charges :
     core                                   :         4.00000000
     core leakage                           :         0.00128277
     valence                                :         8.00000000
     interstitial                           :         4.53492640
     charge in muffin-tin spheres :
                  atom     1     C          :         3.73253680
                  atom     2     C          :         3.73253680
     total charge in muffin-tins            :         7.46507360
     total charge                           :        12.00000000
 
 Wall time (seconds)                        :       191.35
 
++++++++++++++++++++++++++++++++++++++++++++++++++++++++++++++++++++++++++++++++
| SCF iteration number :    2                                                  +
++++++++++++++++++++++++++++++++++++++++++++++++++++++++++++++++++++++++++++++++
 Total energy                               :       -77.61223910
 _______________________________________________________________
 Fermi energy                               :         0.16489133
 Kinetic energy                             :        74.98806917
 Coulomb energy                             :      -141.71694080
 Exchange energy                            :       -10.46378707
 Correlation energy                         :        -0.41958040
 
 DOS at Fermi energy (states/Ha/cell)       :         0.77591975
 
 Electron charges :
     core                                   :         4.00000000
     core leakage                           :         0.00129515
     valence                                :         8.00000000
     interstitial                           :         4.59931095
     charge in muffin-tin spheres :
                  atom     1     C          :         3.70034452
                  atom     2     C          :         3.70034452
     total charge in muffin-tins            :         7.40068905
     total charge                           :        12.00000000
 
 Wall time (seconds)                        :       381.05
 
 RMS change in effective potential (target) :   1.60886      ( 0.100000E-05)
 Absolute change in total energy   (target) :  0.818764      ( 0.100000E-06)
 Charge distance                   (target) :  0.131005E-01  ( 0.100000E-04)
 Abs. change in max-nonIBS-force   (target) :  0.485088E-04  ( 0.250000E-05)
 
++++++++++++++++++++++++++++++++++++++++++++++++++++++++++++++++++++++++++++++++
| SCF iteration number :    3                                                  +
++++++++++++++++++++++++++++++++++++++++++++++++++++++++++++++++++++++++++++++++
 Total energy                               :       -77.03290531
 _______________________________________________________________
 Fermi energy                               :         0.18085503
 Kinetic energy                             :        75.38339091
 Coulomb energy                             :      -141.56021724
 Exchange energy                            :       -10.43586166
 Correlation energy                         :        -0.42021732
 
 DOS at Fermi energy (states/Ha/cell)       :         0.80943412
 
 Electron charges :
     core                                   :         4.00000000
     core leakage                           :         0.00130311
     valence                                :         8.00000000
     interstitial                           :         4.64619778
     charge in muffin-tin spheres :
                  atom     1     C          :         3.67690111
                  atom     2     C          :         3.67690111
     total charge in muffin-tins            :         7.35380222
     total charge                           :        12.00000000
 
 Wall time (seconds)                        :       572.95
 
 RMS change in effective potential (target) :   1.18717      ( 0.100000E-05)
 Absolute change in total energy   (target) :  0.579334      ( 0.100000E-06)
 Charge distance                   (target) :  0.965614E-02  ( 0.100000E-04)
 Abs. change in max-nonIBS-force   (target) :  0.190801E-04  ( 0.250000E-05)
 
++++++++++++++++++++++++++++++++++++++++++++++++++++++++++++++++++++++++++++++++
| SCF iteration number :    4                                                  +
++++++++++++++++++++++++++++++++++++++++++++++++++++++++++++++++++++++++++++++++
 Total energy                               :       -76.79048749
 _______________________________________________________________
 Fermi energy                               :         0.18682319
 Kinetic energy                             :        75.56342047
 Coulomb energy                             :      -141.51200565
 Exchange energy                            :       -10.42127118
 Correlation energy                         :        -0.42063113
 
 DOS at Fermi energy (states/Ha/cell)       :         0.82971768
 
 Electron charges :
     core                                   :         4.00000000
     core leakage                           :         0.00129524
     valence                                :         8.00000000
     interstitial                           :         4.67521456
     charge in muffin-tin spheres :
                  atom     1     C          :         3.66239272
                  atom     2     C          :         3.66239272
     total charge in muffin-tins            :         7.32478544
     total charge                           :        12.00000000
 
 Wall time (seconds)                        :       764.77
 
 RMS change in effective potential (target) :  0.672969E-01  ( 0.100000E-05)
 Absolute change in total energy   (target) :  0.242418      ( 0.100000E-06)
 Charge distance                   (target) :  0.650354E-02  ( 0.100000E-04)
 Abs. change in max-nonIBS-force   (target) :  0.345392E-05  ( 0.250000E-05)
 
++++++++++++++++++++++++++++++++++++++++++++++++++++++++++++++++++++++++++++++++
| SCF iteration number :    5                                                  +
++++++++++++++++++++++++++++++++++++++++++++++++++++++++++++++++++++++++++++++++
 Total energy                               :       -75.92187380
 _______________________________________________________________
 Fermi energy                               :         0.20967819
 Kinetic energy                             :        76.13126508
 Coulomb energy                             :      -141.25135088
 Exchange energy                            :       -10.38015108
 Correlation energy                         :        -0.42163692
 
 DOS at Fermi energy (states/Ha/cell)       :         0.88510520
 
 Electron charges :
     core                                   :         4.00000000
     core leakage                           :         0.00131503
     valence                                :         8.00000000
     interstitial                           :         4.74110038
     charge in muffin-tin spheres :
                  atom     1     C          :         3.62944981
                  atom     2     C          :         3.62944981
     total charge in muffin-tins            :         7.25889962
     total charge                           :        12.00000000
 
 Wall time (seconds)                        :       956.12
 
 RMS change in effective potential (target) :  0.329132E-01  ( 0.100000E-05)
 Absolute change in total energy   (target) :  0.868614      ( 0.100000E-06)
 Charge distance                   (target) :  0.134459E-01  ( 0.100000E-04)
 Abs. change in max-nonIBS-force   (target) :  0.968540E-05  ( 0.250000E-05)
 
++++++++++++++++++++++++++++++++++++++++++++++++++++++++++++++++++++++++++++++++
| SCF iteration number :    6                                                  +
++++++++++++++++++++++++++++++++++++++++++++++++++++++++++++++++++++++++++++++++
 Total energy                               :       -76.20726419
 _______________________________________________________________
 Fermi energy                               :         0.20229455
 Kinetic energy                             :        75.94504092
 Coulomb energy                             :      -141.33723193
 Exchange energy                            :       -10.39377402
 Correlation energy                         :        -0.42129916
 
 DOS at Fermi energy (states/Ha/cell)       :         0.86601865
 
 Electron charges :
     core                                   :         4.00000000
     core leakage                           :         0.00130878
     valence                                :         8.00000000
     interstitial                           :         4.71922313
     charge in muffin-tin spheres :
                  atom     1     C          :         3.64038844
                  atom     2     C          :         3.64038844
     total charge in muffin-tins            :         7.28077687
     total charge                           :        12.00000000
 
 Wall time (seconds)                        :      1148.15
 
 RMS change in effective potential (target) :  0.543471E-03  ( 0.100000E-05)
 Absolute change in total energy   (target) :  0.285390      ( 0.100000E-06)
 Charge distance                   (target) :  0.450608E-02  ( 0.100000E-04)
 Abs. change in max-nonIBS-force   (target) :  0.402162E-05  ( 0.250000E-05)
 
++++++++++++++++++++++++++++++++++++++++++++++++++++++++++++++++++++++++++++++++
| SCF iteration number :    7                                                  +
++++++++++++++++++++++++++++++++++++++++++++++++++++++++++++++++++++++++++++++++
 Total energy                               :       -76.20708026
 _______________________________________________________________
 Fermi energy                               :         0.20230022
 Kinetic energy                             :        75.94549359
 Coulomb energy                             :      -141.33750896
 Exchange energy                            :       -10.39376740
 Correlation energy                         :        -0.42129749
 
 DOS at Fermi energy (states/Ha/cell)       :         0.86611619
 
 Electron charges :
     core                                   :         4.00000000
     core leakage                           :         0.00130869
     valence                                :         8.00000000
     interstitial                           :         4.71924983
     charge in muffin-tin spheres :
                  atom     1     C          :         3.64037509
                  atom     2     C          :         3.64037509
     total charge in muffin-tins            :         7.28075017
     total charge                           :        12.00000000
 
 Wall time (seconds)                        :      1340.06
 
 RMS change in effective potential (target) :  0.143163E-03  ( 0.100000E-05)
 Absolute change in total energy   (target) :  0.183927E-03  ( 0.100000E-06)
 Charge distance                   (target) :  0.240253E-04  ( 0.100000E-04)
 Abs. change in max-nonIBS-force   (target) :  0.623208E-06  ( 0.250000E-05)
 
++++++++++++++++++++++++++++++++++++++++++++++++++++++++++++++++++++++++++++++++
| SCF iteration number :    8                                                  +
++++++++++++++++++++++++++++++++++++++++++++++++++++++++++++++++++++++++++++++++
 Total energy                               :       -76.20789823
 _______________________________________________________________
 Fermi energy                               :         0.20227775
 Kinetic energy                             :        75.94487453
 Coulomb energy                             :      -141.33767237
 Exchange energy                            :       -10.39380346
 Correlation energy                         :        -0.42129693
 
 DOS at Fermi energy (states/Ha/cell)       :         0.86604607
 
 Electron charges :
     core                                   :         4.00000000
     core leakage                           :         0.00130869
     valence                                :         8.00000000
     interstitial                           :         4.71918840
     charge in muffin-tin spheres :
                  atom     1     C          :         3.64040580
                  atom     2     C          :         3.64040580
     total charge in muffin-tins            :         7.28081160
     total charge                           :        12.00000000
 
 Wall time (seconds)                        :      1531.73
 
 RMS change in effective potential (target) :  0.136872E-04  ( 0.100000E-05)
 Absolute change in total energy   (target) :  0.817970E-03  ( 0.100000E-06)
 Charge distance                   (target) :  0.144402E-04  ( 0.100000E-04)
 Abs. change in max-nonIBS-force   (target) :  0.311066E-06  ( 0.250000E-05)
 
++++++++++++++++++++++++++++++++++++++++++++++++++++++++++++++++++++++++++++++++
| SCF iteration number :    9                                                  +
++++++++++++++++++++++++++++++++++++++++++++++++++++++++++++++++++++++++++++++++
 Total energy                               :       -76.20773573
 _______________________________________________________________
 Fermi energy                               :         0.20228199
 Kinetic energy                             :        75.94498304
 Coulomb energy                             :      -141.33762579
 Exchange energy                            :       -10.39379587
 Correlation energy                         :        -0.42129711
 
 DOS at Fermi energy (states/Ha/cell)       :         0.86605660
 
 Electron charges :
     core                                   :         4.00000000
     core leakage                           :         0.00130869
     valence                                :         8.00000000
     interstitial                           :         4.71920068
     charge in muffin-tin spheres :
                  atom     1     C          :         3.64039966
                  atom     2     C          :         3.64039966
     total charge in muffin-tins            :         7.28079932
     total charge                           :        12.00000000
 
 Wall time (seconds)                        :      1723.37
 
 RMS change in effective potential (target) :  0.176459E-05  ( 0.100000E-05)
 Absolute change in total energy   (target) :  0.162502E-03  ( 0.100000E-06)
 Charge distance                   (target) :  0.255656E-05  ( 0.100000E-04)
 Abs. change in max-nonIBS-force   (target) :  0.708041E-07  ( 0.250000E-05)
 
++++++++++++++++++++++++++++++++++++++++++++++++++++++++++++++++++++++++++++++++
| SCF iteration number :   10                                                  +
++++++++++++++++++++++++++++++++++++++++++++++++++++++++++++++++++++++++++++++++
 Total energy                               :       -76.20773634
 _______________________________________________________________
 Fermi energy                               :         0.20228199
 Kinetic energy                             :        75.94498326
 Coulomb energy                             :      -141.33762658
 Exchange energy                            :       -10.39379592
 Correlation energy                         :        -0.42129711
 
 DOS at Fermi energy (states/Ha/cell)       :         0.86605667
 
 Electron charges :
     core                                   :         4.00000000
     core leakage                           :         0.00130869
     valence                                :         8.00000000
     interstitial                           :         4.71920063
     charge in muffin-tin spheres :
                  atom     1     C          :         3.64039968
                  atom     2     C          :         3.64039968
     total charge in muffin-tins            :         7.28079937
     total charge                           :        12.00000000
 
 Wall time (seconds)                        :      1915.17
 
 RMS change in effective potential (target) :  0.494267E-07  ( 0.100000E-05)
 Absolute change in total energy   (target) :  0.615534E-06  ( 0.100000E-06)
 Charge distance                   (target) :  0.241165E-07  ( 0.100000E-04)
 Abs. change in max-nonIBS-force   (target) :  0.264037E-07  ( 0.250000E-05)
 
++++++++++++++++++++++++++++++++++++++++++++++++++++++++++++++++++++++++++++++++
| SCF iteration number :   11                                                  +
++++++++++++++++++++++++++++++++++++++++++++++++++++++++++++++++++++++++++++++++
 Total energy                               :       -76.20773643
 _______________________________________________________________
 Fermi energy                               :         0.20228199
 Kinetic energy                             :        75.94498320
 Coulomb energy                             :      -141.33762659
 Exchange energy                            :       -10.39379592
 Correlation energy                         :        -0.42129711
 
 DOS at Fermi energy (states/Ha/cell)       :         0.86605666
 
 Electron charges :
     core                                   :         4.00000000
     core leakage                           :         0.00130869
     valence                                :         8.00000000
     interstitial                           :         4.71920063
     charge in muffin-tin spheres :
                  atom     1     C          :         3.64039969
                  atom     2     C          :         3.64039969
     total charge in muffin-tins            :         7.28079937
     total charge                           :        12.00000000
 
 Wall time (seconds)                        :      2106.79
 
 RMS change in effective potential (target) :  0.146085E-07  ( 0.100000E-05)
 Absolute change in total energy   (target) :  0.803348E-07  ( 0.100000E-06)
 Charge distance                   (target) :  0.429297E-08  ( 0.100000E-04)
 Abs. change in max-nonIBS-force   (target) :  0.168649E-07  ( 0.250000E-05)
 
++++++++++++++++++++++++++++++++++++++++++++++++++++++++++++++++++++++++++++++++
| Convergence targets achieved. Performing final SCF iteration                 +
++++++++++++++++++++++++++++++++++++++++++++++++++++++++++++++++++++++++++++++++
 Total energy                               :       -76.21542717
 _______________________________________________________________
 Fermi energy                               :         0.20228199
 Kinetic energy                             :        75.94498319
 Coulomb energy                             :      -141.33762659
 Exchange energy                            :       -10.39379592
 Correlation energy                         :        -0.42129711
 DFT-D2 dispersion correction               :        -0.00769074
 
 DOS at Fermi energy (states/Ha/cell)       :         0.86605666
 
 Electron charges :
     core                                   :         4.00000000
     core leakage                           :         0.00130869
     valence                                :         8.00000000
     interstitial                           :         4.71920063
     charge in muffin-tin spheres :
                  atom     1     C          :         3.64039969
                  atom     2     C          :         3.64039969
     total charge in muffin-tins            :         7.28079937
     total charge                           :        12.00000000
 
++++++++++++++++++++++++++++++++++++++++++++++++++++++++++++++++++++++++++++++++
| Self-consistent loop stopped                                                 +
++++++++++++++++++++++++++++++++++++++++++++++++++++++++++++++++++++++++++++++++
 STATE.OUT is written
 
--------------------------------------------------------------------------------
| Writing atomic positions and forces                                          -
--------------------------------------------------------------------------------
 
 Atomic positions (lattice) :
 atom     1   C  :     0.00000000    0.00000000    0.00000000
 atom     2   C  :     0.33333333    0.33333333    0.00000000
 
 Total atomic forces including IBS (cartesian) :
 atom     1   C  :     0.00000000   -0.00007059   -0.00000978
 atom     2   C  :     0.00000000    0.00007059    0.00000978
 
 Atomic force components including IBS (cartesian) :
 atom     1   C  :     0.00000000   -0.00000863   -0.00007439   HF force
                 :     0.00000000   -0.00000384    0.00003830   core correction
                 :     0.00000000   -0.00005888    0.00002648   IBS correction
                 :     0.00000000    0.00000076   -0.00000017   DFT-D2 force
 atom     2   C  :     0.00000000    0.00000863    0.00007439   HF force
                 :     0.00000000    0.00000384   -0.00003830   core correction
                 :     0.00000000    0.00005888   -0.00002648   IBS correction
                 :     0.00000000   -0.00000076    0.00000017   DFT-D2 force
 
********************************************************************************
| Groundstate module stopped                                                   *
********************************************************************************
 
********************************************************************************
| Structure-optimization module started                                        *
********************************************************************************
 Output level for this task is set to normal
 
 Maximum displacement tau_BFGS   is         :         0.3000
 Maximum displacement tau_newton is         :         0.8000
 
++++++++++++++++++++++++++++++++++++++++++++++++++++++++++++++++++++++++++++++++
| Use harmonic method for optimizing atomic positions                          +
++++++++++++++++++++++++++++++++++++++++++++++++++++++++++++++++++++++++++++++++
 
--------------------------------------------------------------------------------
| Optimization step 0: Initialize optimization                                 -
--------------------------------------------------------------------------------
 Maximum force magnitude           (target) :         0.00007126  (  0.00001000)
 Total energy at this optimization step     :       -76.21542717
 
 Atomic positions at this step (lattice) :
 atom     1   C  :     0.00000000    0.00000000    0.00000000
 atom     2   C  :     0.33333333    0.33333333    0.00000000
 
 Total atomic forces including IBS (cartesian) :
 atom     1   C  :     0.00000000   -0.00007059   -0.00000978
 atom     2   C  :     0.00000000    0.00007059    0.00000978
 
--------------------------------------------------------------------------------
| Optimization step    1    (method = harmonic)                                -
--------------------------------------------------------------------------------
 Number of scf iterations                   :        11  (full newton step)
 Maximum force magnitude           (target) :         0.00000893  (  0.00001000)
 Total energy at this optimization step     :       -76.21542716
 
 Atomic positions at this step (lattice) :
 atom     1   C  :     0.00000000    0.00000000    0.00000000
 atom     2   C  :     0.33334730    0.33334730    0.00000147
 
 Total atomic forces including IBS (cartesian) :
 atom     1   C  :     0.00000000   -0.00000743   -0.00000495
 atom     2   C  :     0.00000000    0.00000743    0.00000495
 
 Time spent in this optimization step       :      2231.13 seconds
 
++++++++++++++++++++++++++++++++++++++++++++++++++++++++++++++++++++++++++++++++
| Force convergence target achieved                                            +
++++++++++++++++++++++++++++++++++++++++++++++++++++++++++++++++++++++++++++++++
 Total energy                               :       -76.21542716
 _______________________________________________________________
 Fermi energy                               :         0.20228196
 Kinetic energy                             :        75.94498321
 Coulomb energy                             :      -141.33762660
 Exchange energy                            :       -10.39379592
 Correlation energy                         :        -0.42129711
 DFT-D2 dispersion correction               :        -0.00769074
 
 DOS at Fermi energy (states/Ha/cell)       :         0.86606792
 
 Electron charges :
     core                                   :         4.00000000
     core leakage                           :         0.00130869
     valence                                :         8.00000000
     interstitial                           :         4.71920062
     charge in muffin-tin spheres :
                  atom     1     C          :         3.64039969
                  atom     2     C          :         3.64039969
     total charge in muffin-tins            :         7.28079938
     total charge                           :        12.00000000
 
 Optimized atomic positions (lattice) :
 atom     1   C  :     0.00000000    0.00000000    0.00000000
 atom     2   C  :     0.33334730    0.33334730    0.00000147
 
 Total atomic forces including IBS (cartesian) :
 atom     1   C  :     0.00000000   -0.00000743   -0.00000495
 atom     2   C  :     0.00000000    0.00000743    0.00000495
 
 Atomic force components including IBS (cartesian) :
 atom     1   C  :     0.00000000    0.00005520   -0.00007004   HF force
                 :     0.00000000   -0.00000408    0.00003881   core correction
                 :     0.00000000   -0.00005936    0.00002646   IBS correction
                 :     0.00000000    0.00000082   -0.00000018   DFT-D2 force
 atom     2   C  :     0.00000000   -0.00005520    0.00007004   HF force
                 :     0.00000000    0.00000408   -0.00003881   core correction
                 :     0.00000000    0.00005936   -0.00002646   IBS correction
                 :     0.00000000   -0.00000082    0.00000018   DFT-D2 force
 
********************************************************************************
| Structure-optimization module stopped                                        *
********************************************************************************
 
 Total time spent (seconds)                 :      4682.09
 
================================================================================
| EXCITING BORON stopped                                                       =
================================================================================
