================================================================================
| EXCITING BORON started                                                       =
| version hash id:                                                             =
| MPI version using     16 processor(s)                                        =
|                                                                              =
| Date (DD-MM-YYYY) : 09-08-2015                                               =
| Time (hh:mm:ss)   : 22:12:47                                                 =
|                                                                              =
| All units are atomic (Hartree, Bohr, etc.)                                   =
================================================================================
 
********************************************************************************
| Structural optimisation starting from atomic densities                       *
********************************************************************************
 
++++++++++++++++++++++++++++++++++++++++++++++++++++++++++++++++++++++++++++++++
| Starting initialization                                                      +
++++++++++++++++++++++++++++++++++++++++++++++++++++++++++++++++++++++++++++++++
 
 Lattice vectors (cartesian) :
      2.3036124717      3.9899738420      0.0000000000
     -2.3036124717      3.9899738420      0.0000000000
      0.0000000000      0.0000000000      6.7063344843
 
 Reciprocal lattice vectors (cartesian) :
      1.3637678612      0.7873717418      0.0000000000
     -1.3637678612      0.7873717418      0.0000000000
      0.0000000000      0.0000000000      0.9369030611
 
 Unit cell volume                           :     123.2805819272
 Brillouin zone volume                      :       2.0120785412
 
 Species :    1 (C)
     parameters loaded from                 :    C.xml
     name                                   :    carbon
     nuclear charge                         :      -6.00000000
     electronic charge                      :       6.00000000
     atomic mass                            :   21894.16673000
     muffin-tin radius                      :       1.20000000
     # of radial points in muffin-tin       :     250
 
     atomic positions (lattice) :
       1 :   0.00000000  0.00000000  0.00000000
       2 :   0.33333333  0.33333333  0.00000000
 
 Total number of atoms per unit cell        :       2
 
 Spin treatment                             :    spin-unpolarised
 
 Number of Bravais lattice symmetries       :      24
 Number of crystal symmetries               :      24
 
 k-point grid                               :      34   34   24
 Total number of k-points                   :    1482
 k-point set is reduced with crystal symmetries
 
 R^MT_min * |G+k|_max (rgkmax)              :       8.00000000
 Species with R^MT_min                      :       1 (C)
 Maximum |G+k| for APW functions            :       6.66666667
 Maximum |G| for potential and density      :      20.00000000
 
 G-vector grid sizes                        :      30    30    45
 Total number of G-vectors                  :   16633
 
 Maximum angular momentum used for
     APW functions                          :       8
     computing H and O matrix elements      :       8
     potential and density                  :       8
     inner part of muffin-tin               :       2
 
 Total nuclear charge                       :     -12.00000000
 Total electronic charge                    :      12.00000000
 Total core charge                          :       4.00000000
 Total valence charge                       :       8.00000000
 
 Number of empty states                     :       5
 Total number of valence states             :      10
 
 Maximum Hamiltonian size                   :     643
 Maximum number of plane-waves              :     635
 Total number of local-orbitals             :       8
 
 Exchange-correlation type                  :      20
     Perdew-Burke-Ernzerhof, Phys. Rev. Lett. 77, 3865 (1996)
     Generalised gradient approximation (GGA)
 
 Smearing scheme                            :    Gaussian
 Smearing width                             :       0.01000000
 
 Using multisecant Broyden potential mixing
 
++++++++++++++++++++++++++++++++++++++++++++++++++++++++++++++++++++++++++++++++
| Ending initialization                                                        +
++++++++++++++++++++++++++++++++++++++++++++++++++++++++++++++++++++++++++++++++
 
********************************************************************************
| Groundstate module started                                                   *
********************************************************************************
 Output level for this task is set to normal
 
++++++++++++++++++++++++++++++++++++++++++++++++++++++++++++++++++++++++++++++++
| Self-consistent loop started                                                 +
++++++++++++++++++++++++++++++++++++++++++++++++++++++++++++++++++++++++++++++++
 Density and potential initialised from atomic data
 
 
++++++++++++++++++++++++++++++++++++++++++++++++++++++++++++++++++++++++++++++++
| SCF iteration number :    1                                                  +
++++++++++++++++++++++++++++++++++++++++++++++++++++++++++++++++++++++++++++++++
 Total energy                               :       -78.51427005
 _______________________________________________________________
 Fermi energy                               :         0.15631278
 Kinetic energy                             :        74.47765833
 Coulomb energy                             :      -142.04232350
 Exchange energy                            :       -10.52912071
 Correlation energy                         :        -0.42048416
 
 DOS at Fermi energy (states/Ha/cell)       :         0.80433093
 
 Electron charges :
     core                                   :         4.00000000
     core leakage                           :         0.00128499
     valence                                :         8.00000000
     interstitial                           :         4.48151441
     charge in muffin-tin spheres :
                  atom     1     C          :         3.75924279
                  atom     2     C          :         3.75924279
     total charge in muffin-tins            :         7.51848559
     total charge                           :        12.00000000
 
 Wall time (seconds)                        :        36.27
 
++++++++++++++++++++++++++++++++++++++++++++++++++++++++++++++++++++++++++++++++
| SCF iteration number :    2                                                  +
++++++++++++++++++++++++++++++++++++++++++++++++++++++++++++++++++++++++++++++++
 Total energy                               :       -77.66657004
 _______________________________________________________________
 Fermi energy                               :         0.18026895
 Kinetic energy                             :        75.05919833
 Coulomb energy                             :      -141.81531495
 Exchange energy                            :       -10.48908370
 Correlation energy                         :        -0.42136972
 
 DOS at Fermi energy (states/Ha/cell)       :         0.85812618
 
 Electron charges :
     core                                   :         4.00000000
     core leakage                           :         0.00129822
     valence                                :         8.00000000
     interstitial                           :         4.54854076
     charge in muffin-tin spheres :
                  atom     1     C          :         3.72572962
                  atom     2     C          :         3.72572962
     total charge in muffin-tins            :         7.45145924
     total charge                           :        12.00000000
 
 Wall time (seconds)                        :        71.53
 
 RMS change in effective potential (target) :   1.61334      ( 0.100000E-05)
 Absolute change in total energy   (target) :  0.847700      ( 0.100000E-06)
 Charge distance                   (target) :  0.135252E-01  ( 0.100000E-04)
 Abs. change in max-nonIBS-force   (target) :   0.00000      ( 0.250000E-05)
 
++++++++++++++++++++++++++++++++++++++++++++++++++++++++++++++++++++++++++++++++
| SCF iteration number :    3                                                  +
++++++++++++++++++++++++++++++++++++++++++++++++++++++++++++++++++++++++++++++++
 Total energy                               :       -77.06578344
 _______________________________________________________________
 Fermi energy                               :         0.19659248
 Kinetic energy                             :        75.46758244
 Coulomb energy                             :      -141.65126823
 Exchange energy                            :       -10.46002932
 Correlation energy                         :        -0.42206833
 
 DOS at Fermi energy (states/Ha/cell)       :         0.90118300
 
 Electron charges :
     core                                   :         4.00000000
     core leakage                           :         0.00130678
     valence                                :         8.00000000
     interstitial                           :         4.59744737
     charge in muffin-tin spheres :
                  atom     1     C          :         3.70127632
                  atom     2     C          :         3.70127632
     total charge in muffin-tins            :         7.40255263
     total charge                           :        12.00000000
 
 Wall time (seconds)                        :       107.13
 
 RMS change in effective potential (target) :   1.19120      ( 0.100000E-05)
 Absolute change in total energy   (target) :  0.600787      ( 0.100000E-06)
 Charge distance                   (target) :  0.998742E-02  ( 0.100000E-04)
 Abs. change in max-nonIBS-force   (target) :   0.00000      ( 0.250000E-05)
 
++++++++++++++++++++++++++++++++++++++++++++++++++++++++++++++++++++++++++++++++
| SCF iteration number :    4                                                  +
++++++++++++++++++++++++++++++++++++++++++++++++++++++++++++++++++++++++++++++++
 Total energy                               :       -76.80548030
 _______________________________________________________________
 Fermi energy                               :         0.20286023
 Kinetic energy                             :        75.65910637
 Coulomb energy                             :      -141.59766721
 Exchange energy                            :       -10.44438987
 Correlation energy                         :        -0.42252958
 
 DOS at Fermi energy (states/Ha/cell)       :         0.92846627
 
 Electron charges :
     core                                   :         4.00000000
     core leakage                           :         0.00129911
     valence                                :         8.00000000
     interstitial                           :         4.62852070
     charge in muffin-tin spheres :
                  atom     1     C          :         3.68573965
                  atom     2     C          :         3.68573965
     total charge in muffin-tins            :         7.37147930
     total charge                           :        12.00000000
 
 Wall time (seconds)                        :       142.72
 
 RMS change in effective potential (target) :  0.706691E-01  ( 0.100000E-05)
 Absolute change in total energy   (target) :  0.260303      ( 0.100000E-06)
 Charge distance                   (target) :  0.685682E-02  ( 0.100000E-04)
 Abs. change in max-nonIBS-force   (target) :   0.00000      ( 0.250000E-05)
 
++++++++++++++++++++++++++++++++++++++++++++++++++++++++++++++++++++++++++++++++
| SCF iteration number :    5                                                  +
++++++++++++++++++++++++++++++++++++++++++++++++++++++++++++++++++++++++++++++++
 Total energy                               :       -75.92126841
 _______________________________________________________________
 Fermi energy                               :         0.22578800
 Kinetic energy                             :        76.23527485
 Coulomb energy                             :      -141.33048118
 Exchange energy                            :       -10.40244823
 Correlation energy                         :        -0.42361385
 
 DOS at Fermi energy (states/Ha/cell)       :         0.99928558
 
 Electron charges :
     core                                   :         4.00000000
     core leakage                           :         0.00131964
     valence                                :         8.00000000
     interstitial                           :         4.69604749
     charge in muffin-tin spheres :
                  atom     1     C          :         3.65197626
                  atom     2     C          :         3.65197626
     total charge in muffin-tins            :         7.30395251
     total charge                           :        12.00000000
 
 Wall time (seconds)                        :       178.40
 
 RMS change in effective potential (target) :  0.335027E-01  ( 0.100000E-05)
 Absolute change in total energy   (target) :  0.884212      ( 0.100000E-06)
 Charge distance                   (target) :  0.136852E-01  ( 0.100000E-04)
 Abs. change in max-nonIBS-force   (target) :   0.00000      ( 0.250000E-05)
 
++++++++++++++++++++++++++++++++++++++++++++++++++++++++++++++++++++++++++++++++
| SCF iteration number :    6                                                  +
++++++++++++++++++++++++++++++++++++++++++++++++++++++++++++++++++++++++++++++++
 Total energy                               :       -76.20625382
 _______________________________________________________________
 Fermi energy                               :         0.21853850
 Kinetic energy                             :        76.04989984
 Coulomb energy                             :      -141.41680770
 Exchange energy                            :       -10.41608953
 Correlation energy                         :        -0.42325644
 
 DOS at Fermi energy (states/Ha/cell)       :         0.97493104
 
 Electron charges :
     core                                   :         4.00000000
     core leakage                           :         0.00131330
     valence                                :         8.00000000
     interstitial                           :         4.67402183
     charge in muffin-tin spheres :
                  atom     1     C          :         3.66298908
                  atom     2     C          :         3.66298908
     total charge in muffin-tins            :         7.32597817
     total charge                           :        12.00000000
 
 Wall time (seconds)                        :       214.04
 
 RMS change in effective potential (target) :  0.649597E-03  ( 0.100000E-05)
 Absolute change in total energy   (target) :  0.284985      ( 0.100000E-06)
 Charge distance                   (target) :  0.450692E-02  ( 0.100000E-04)
 Abs. change in max-nonIBS-force   (target) :   0.00000      ( 0.250000E-05)
 
++++++++++++++++++++++++++++++++++++++++++++++++++++++++++++++++++++++++++++++++
| SCF iteration number :    7                                                  +
++++++++++++++++++++++++++++++++++++++++++++++++++++++++++++++++++++++++++++++++
 Total energy                               :       -76.20597532
 _______________________________________________________________
 Fermi energy                               :         0.21854414
 Kinetic energy                             :        76.05044117
 Coulomb energy                             :      -141.41708517
 Exchange energy                            :       -10.41607653
 Correlation energy                         :        -0.42325480
 
 DOS at Fermi energy (states/Ha/cell)       :         0.97508823
 
 Electron charges :
     core                                   :         4.00000000
     core leakage                           :         0.00131320
     valence                                :         8.00000000
     interstitial                           :         4.67406132
     charge in muffin-tin spheres :
                  atom     1     C          :         3.66296934
                  atom     2     C          :         3.66296934
     total charge in muffin-tins            :         7.32593868
     total charge                           :        12.00000000
 
 Wall time (seconds)                        :       249.65
 
 RMS change in effective potential (target) :  0.161980E-03  ( 0.100000E-05)
 Absolute change in total energy   (target) :  0.278505E-03  ( 0.100000E-06)
 Charge distance                   (target) :  0.277335E-04  ( 0.100000E-04)
 Abs. change in max-nonIBS-force   (target) :   0.00000      ( 0.250000E-05)
 
++++++++++++++++++++++++++++++++++++++++++++++++++++++++++++++++++++++++++++++++
| SCF iteration number :    8                                                  +
++++++++++++++++++++++++++++++++++++++++++++++++++++++++++++++++++++++++++++++++
 Total energy                               :       -76.20688505
 _______________________________________________________________
 Fermi energy                               :         0.21851980
 Kinetic energy                             :        76.04975739
 Coulomb energy                             :      -141.41727130
 Exchange energy                            :       -10.41611705
 Correlation energy                         :        -0.42325410
 
 DOS at Fermi energy (states/Ha/cell)       :         0.97499013
 
 Electron charges :
     core                                   :         4.00000000
     core leakage                           :         0.00131320
     valence                                :         8.00000000
     interstitial                           :         4.67399187
     charge in muffin-tin spheres :
                  atom     1     C          :         3.66300406
                  atom     2     C          :         3.66300406
     total charge in muffin-tins            :         7.32600813
     total charge                           :        12.00000000
 
 Wall time (seconds)                        :       285.30
 
 RMS change in effective potential (target) :  0.197693E-04  ( 0.100000E-05)
 Absolute change in total energy   (target) :  0.909735E-03  ( 0.100000E-06)
 Charge distance                   (target) :  0.161619E-04  ( 0.100000E-04)
 Abs. change in max-nonIBS-force   (target) :   0.00000      ( 0.250000E-05)
 
++++++++++++++++++++++++++++++++++++++++++++++++++++++++++++++++++++++++++++++++
| SCF iteration number :    9                                                  +
++++++++++++++++++++++++++++++++++++++++++++++++++++++++++++++++++++++++++++++++
 Total energy                               :       -76.20675169
 _______________________________________________________________
 Fermi energy                               :         0.21852316
 Kinetic energy                             :        76.04984255
 Coulomb energy                             :      -141.41722926
 Exchange energy                            :       -10.41611071
 Correlation energy                         :        -0.42325427
 
 DOS at Fermi energy (states/Ha/cell)       :         0.97500011
 
 Electron charges :
     core                                   :         4.00000000
     core leakage                           :         0.00131320
     valence                                :         8.00000000
     interstitial                           :         4.67400201
     charge in muffin-tin spheres :
                  atom     1     C          :         3.66299900
                  atom     2     C          :         3.66299900
     total charge in muffin-tins            :         7.32599799
     total charge                           :        12.00000000
 
 Wall time (seconds)                        :       320.95
 
 RMS change in effective potential (target) :  0.173425E-05  ( 0.100000E-05)
 Absolute change in total energy   (target) :  0.133364E-03  ( 0.100000E-06)
 Charge distance                   (target) :  0.203802E-05  ( 0.100000E-04)
 Abs. change in max-nonIBS-force   (target) :   0.00000      ( 0.250000E-05)
 
++++++++++++++++++++++++++++++++++++++++++++++++++++++++++++++++++++++++++++++++
| SCF iteration number :   10                                                  +
++++++++++++++++++++++++++++++++++++++++++++++++++++++++++++++++++++++++++++++++
 Total energy                               :       -76.20675247
 _______________________________________________________________
 Fermi energy                               :         0.21852316
 Kinetic energy                             :        76.04984260
 Coulomb energy                             :      -141.41723005
 Exchange energy                            :       -10.41611077
 Correlation energy                         :        -0.42325426
 
 DOS at Fermi energy (states/Ha/cell)       :         0.97500016
 
 Electron charges :
     core                                   :         4.00000000
     core leakage                           :         0.00131320
     valence                                :         8.00000000
     interstitial                           :         4.67400194
     charge in muffin-tin spheres :
                  atom     1     C          :         3.66299903
                  atom     2     C          :         3.66299903
     total charge in muffin-tins            :         7.32599806
     total charge                           :        12.00000000
 
 Wall time (seconds)                        :       356.59
 
 RMS change in effective potential (target) :  0.324325E-07  ( 0.100000E-05)
 Absolute change in total energy   (target) :  0.785584E-06  ( 0.100000E-06)
 Charge distance                   (target) :  0.189256E-07  ( 0.100000E-04)
 Abs. change in max-nonIBS-force   (target) :   0.00000      ( 0.250000E-05)
 
++++++++++++++++++++++++++++++++++++++++++++++++++++++++++++++++++++++++++++++++
| SCF iteration number :   11                                                  +
++++++++++++++++++++++++++++++++++++++++++++++++++++++++++++++++++++++++++++++++
 Total energy                               :       -76.20675250
 _______________________________________________________________
 Fermi energy                               :         0.21852316
 Kinetic energy                             :        76.04984259
 Coulomb energy                             :      -141.41723005
 Exchange energy                            :       -10.41611077
 Correlation energy                         :        -0.42325426
 
 DOS at Fermi energy (states/Ha/cell)       :         0.97500016
 
 Electron charges :
     core                                   :         4.00000000
     core leakage                           :         0.00131320
     valence                                :         8.00000000
     interstitial                           :         4.67400194
     charge in muffin-tin spheres :
                  atom     1     C          :         3.66299903
                  atom     2     C          :         3.66299903
     total charge in muffin-tins            :         7.32599806
     total charge                           :        12.00000000
 
 Wall time (seconds)                        :       392.38
 
 RMS change in effective potential (target) :  0.376054E-08  ( 0.100000E-05)
 Absolute change in total energy   (target) :  0.213736E-07  ( 0.100000E-06)
 Charge distance                   (target) :  0.601687E-09  ( 0.100000E-04)
 Abs. change in max-nonIBS-force   (target) :   0.00000      ( 0.250000E-05)
 
++++++++++++++++++++++++++++++++++++++++++++++++++++++++++++++++++++++++++++++++
| Convergence targets achieved. Performing final SCF iteration                 +
++++++++++++++++++++++++++++++++++++++++++++++++++++++++++++++++++++++++++++++++
 Total energy                               :       -76.21489949
 _______________________________________________________________
 Fermi energy                               :         0.21852316
 Kinetic energy                             :        76.04984258
 Coulomb energy                             :      -141.41723005
 Exchange energy                            :       -10.41611077
 Correlation energy                         :        -0.42325426
 DFT-D2 dispersion correction               :        -0.00814698
 
 DOS at Fermi energy (states/Ha/cell)       :         0.97500016
 
 Electron charges :
     core                                   :         4.00000000
     core leakage                           :         0.00131320
     valence                                :         8.00000000
     interstitial                           :         4.67400194
     charge in muffin-tin spheres :
                  atom     1     C          :         3.66299903
                  atom     2     C          :         3.66299903
     total charge in muffin-tins            :         7.32599806
     total charge                           :        12.00000000
 
++++++++++++++++++++++++++++++++++++++++++++++++++++++++++++++++++++++++++++++++
| Self-consistent loop stopped                                                 +
++++++++++++++++++++++++++++++++++++++++++++++++++++++++++++++++++++++++++++++++
 STATE.OUT is written
 
--------------------------------------------------------------------------------
| Writing atomic positions and forces                                          -
--------------------------------------------------------------------------------
 
 Atomic positions (lattice) :
 atom     1   C  :     0.00000000    0.00000000    0.00000000
 atom     2   C  :     0.33333333    0.33333333    0.00000000
 
 Total atomic forces including IBS (cartesian) :
 atom     1   C  :     0.00000000    0.00000000    0.00000000
 atom     2   C  :     0.00000000    0.00000000    0.00000000
 
 Atomic force components including IBS (cartesian) :
 atom     1   C  :     0.00000000    0.00000000    0.00000000   HF force
                 :     0.00000000    0.00000000    0.00000000   core correction
                 :     0.00000000    0.00000000    0.00000000   IBS correction
                 :     0.00000000    0.00000000    0.00000000   DFT-D2 force
 atom     2   C  :     0.00000000    0.00000000    0.00000000   HF force
                 :     0.00000000    0.00000000    0.00000000   core correction
                 :     0.00000000    0.00000000    0.00000000   IBS correction
                 :     0.00000000    0.00000000    0.00000000   DFT-D2 force
 
********************************************************************************
| Groundstate module stopped                                                   *
********************************************************************************
 
********************************************************************************
| Structure-optimization module started                                        *
********************************************************************************
 Output level for this task is set to normal
 
 Maximum displacement tau_BFGS   is         :         0.3000
 Maximum displacement tau_newton is         :         0.8000
 Maximum force target reached already at the initial configuration
 
********************************************************************************
| Structure-optimization module stopped                                        *
********************************************************************************
 
 Total time spent (seconds)                 :       457.12
 
================================================================================
| EXCITING BORON stopped                                                       =
================================================================================
