================================================================================
| EXCITING BORON started                                                       =
| version hash id:                                                             =
| MPI version using     16 processor(s)                                        =
|                                                                              =
| Date (DD-MM-YYYY) : 12-08-2015                                               =
| Time (hh:mm:ss)   : 20:37:36                                                 =
|                                                                              =
| All units are atomic (Hartree, Bohr, etc.)                                   =
================================================================================
 
********************************************************************************
| Structural optimisation starting from atomic densities                       *
********************************************************************************
 
++++++++++++++++++++++++++++++++++++++++++++++++++++++++++++++++++++++++++++++++
| Starting initialization                                                      +
++++++++++++++++++++++++++++++++++++++++++++++++++++++++++++++++++++++++++++++++
 
 Lattice vectors (cartesian) :
      2.1071881217      3.6497568878      0.0000000000
     -2.1071881217      3.6497568878      0.0000000000
      0.0000000000      0.0000000000      6.5761020000
 
 Reciprocal lattice vectors (cartesian) :
      1.4908933006      0.8607676484      0.0000000000
     -1.4908933006      0.8607676484      0.0000000000
      0.0000000000      0.0000000000      0.9554573982
 
 Unit cell volume                           :     101.1499757017
 Brillouin zone volume                      :       2.4523012657
 
 Species :    1 (C)
     parameters loaded from                 :    C.xml
     name                                   :    carbon
     nuclear charge                         :      -6.00000000
     electronic charge                      :       6.00000000
     atomic mass                            :   21894.16673000
     muffin-tin radius                      :       1.20000000
     # of radial points in muffin-tin       :     250
 
     atomic positions (lattice) :
       1 :   0.00000000  0.00000000  0.00000000
       2 :   0.33333333  0.33333333  0.00000000
 
 Total number of atoms per unit cell        :       2
 
 Spin treatment                             :    spin-unpolarised
 
 Number of Bravais lattice symmetries       :      24
 Number of crystal symmetries               :      24
 
 k-point grid                               :      34   34   24
 Total number of k-points                   :    1482
 k-point set is reduced with crystal symmetries
 
 R^MT_min * |G+k|_max (rgkmax)              :       8.00000000
 Species with R^MT_min                      :       1 (C)
 Maximum |G+k| for APW functions            :       6.66666667
 Maximum |G| for potential and density      :      20.00000000
 
 G-vector grid sizes                        :      27    27    45
 Total number of G-vectors                  :   13631
 
 Maximum angular momentum used for
     APW functions                          :       8
     computing H and O matrix elements      :       8
     potential and density                  :       8
     inner part of muffin-tin               :       2
 
 Total nuclear charge                       :     -12.00000000
 Total electronic charge                    :      12.00000000
 Total core charge                          :       4.00000000
 Total valence charge                       :       8.00000000
 
 Number of empty states                     :       5
 Total number of valence states             :      10
 
 Maximum Hamiltonian size                   :     538
 Maximum number of plane-waves              :     530
 Total number of local-orbitals             :       8
 
 Exchange-correlation type                  :      20
     Perdew-Burke-Ernzerhof, Phys. Rev. Lett. 77, 3865 (1996)
     Generalised gradient approximation (GGA)
 
 Smearing scheme                            :    Gaussian
 Smearing width                             :       0.01000000
 
 Using multisecant Broyden potential mixing
 
++++++++++++++++++++++++++++++++++++++++++++++++++++++++++++++++++++++++++++++++
| Ending initialization                                                        +
++++++++++++++++++++++++++++++++++++++++++++++++++++++++++++++++++++++++++++++++
 
********************************************************************************
| Groundstate module started                                                   *
********************************************************************************
 Output level for this task is set to normal
 
++++++++++++++++++++++++++++++++++++++++++++++++++++++++++++++++++++++++++++++++
| Self-consistent loop started                                                 +
++++++++++++++++++++++++++++++++++++++++++++++++++++++++++++++++++++++++++++++++
 Density and potential initialised from atomic data
 
 
++++++++++++++++++++++++++++++++++++++++++++++++++++++++++++++++++++++++++++++++
| SCF iteration number :    1                                                  +
++++++++++++++++++++++++++++++++++++++++++++++++++++++++++++++++++++++++++++++++
 Total energy                               :       -79.69062670
 _______________________________________________________________
 Fermi energy                               :         0.20513870
 Kinetic energy                             :        74.65052519
 Coulomb energy                             :      -143.11819662
 Exchange energy                            :       -10.78840233
 Correlation energy                         :        -0.43455293
 
 DOS at Fermi energy (states/Ha/cell)       :         0.46535269
 
 Electron charges :
     core                                   :         4.00000000
     core leakage                           :         0.00130978
     valence                                :         8.00000000
     interstitial                           :         3.92241458
     charge in muffin-tin spheres :
                  atom     1     C          :         4.03879271
                  atom     2     C          :         4.03879271
     total charge in muffin-tins            :         8.07758542
     total charge                           :        12.00000000
 
 Wall time (seconds)                        :        24.84
 
++++++++++++++++++++++++++++++++++++++++++++++++++++++++++++++++++++++++++++++++
| SCF iteration number :    2                                                  +
++++++++++++++++++++++++++++++++++++++++++++++++++++++++++++++++++++++++++++++++
 Total energy                               :       -78.40294222
 _______________________________________________________________
 Fermi energy                               :         0.24186659
 Kinetic energy                             :        75.56220830
 Coulomb energy                             :      -142.79722184
 Exchange energy                            :       -10.73230653
 Correlation energy                         :        -0.43562215
 
 DOS at Fermi energy (states/Ha/cell)       :         0.52620296
 
 Electron charges :
     core                                   :         4.00000000
     core leakage                           :         0.00133179
     valence                                :         8.00000000
     interstitial                           :         4.01831053
     charge in muffin-tin spheres :
                  atom     1     C          :         3.99084474
                  atom     2     C          :         3.99084474
     total charge in muffin-tins            :         7.98168947
     total charge                           :        12.00000000
 
 Wall time (seconds)                        :        48.45
 
 RMS change in effective potential (target) :   1.74852      ( 0.100000E-05)
 Absolute change in total energy   (target) :   1.28768      ( 0.100000E-06)
 Charge distance                   (target) :  0.179167E-01  ( 0.100000E-04)
 Abs. change in max-nonIBS-force   (target) :   0.00000      ( 0.250000E-05)
 
++++++++++++++++++++++++++++++++++++++++++++++++++++++++++++++++++++++++++++++++
| SCF iteration number :    3                                                  +
++++++++++++++++++++++++++++++++++++++++++++++++++++++++++++++++++++++++++++++++
 Total energy                               :       -77.47982396
 _______________________________________________________________
 Fermi energy                               :         0.26673753
 Kinetic energy                             :        76.20668549
 Coulomb energy                             :      -142.55921688
 Exchange energy                            :       -10.69079560
 Correlation energy                         :        -0.43649698
 
 DOS at Fermi energy (states/Ha/cell)       :         0.57515707
 
 Electron charges :
     core                                   :         4.00000000
     core leakage                           :         0.00134663
     valence                                :         8.00000000
     interstitial                           :         4.08975833
     charge in muffin-tin spheres :
                  atom     1     C          :         3.95512083
                  atom     2     C          :         3.95512083
     total charge in muffin-tins            :         7.91024167
     total charge                           :        12.00000000
 
 Wall time (seconds)                        :        72.43
 
 RMS change in effective potential (target) :   1.29843      ( 0.100000E-05)
 Absolute change in total energy   (target) :  0.923118      ( 0.100000E-06)
 Charge distance                   (target) :  0.134886E-01  ( 0.100000E-04)
 Abs. change in max-nonIBS-force   (target) :   0.00000      ( 0.250000E-05)
 
++++++++++++++++++++++++++++++++++++++++++++++++++++++++++++++++++++++++++++++++
| SCF iteration number :    4                                                  +
++++++++++++++++++++++++++++++++++++++++++++++++++++++++++++++++++++++++++++++++
 Total energy                               :       -76.99722440
 _______________________________________________________________
 Fermi energy                               :         0.27756464
 Kinetic energy                             :        76.55510214
 Coulomb energy                             :      -142.45021989
 Exchange energy                            :       -10.66493744
 Correlation energy                         :        -0.43716922
 
 DOS at Fermi energy (states/Ha/cell)       :         0.60785861
 
 Electron charges :
     core                                   :         4.00000000
     core leakage                           :         0.00134143
     valence                                :         8.00000000
     interstitial                           :         4.14118340
     charge in muffin-tin spheres :
                  atom     1     C          :         3.92940830
                  atom     2     C          :         3.92940830
     total charge in muffin-tins            :         7.85881660
     total charge                           :        12.00000000
 
 Wall time (seconds)                        :        95.88
 
 RMS change in effective potential (target) :  0.106161      ( 0.100000E-05)
 Absolute change in total energy   (target) :  0.482600      ( 0.100000E-06)
 Charge distance                   (target) :  0.100222E-01  ( 0.100000E-04)
 Abs. change in max-nonIBS-force   (target) :   0.00000      ( 0.250000E-05)
 
++++++++++++++++++++++++++++++++++++++++++++++++++++++++++++++++++++++++++++++++
| SCF iteration number :    5                                                  +
++++++++++++++++++++++++++++++++++++++++++++++++++++++++++++++++++++++++++++++++
 Total energy                               :       -75.82762822
 _______________________________________________________________
 Fermi energy                               :         0.30724897
 Kinetic energy                             :        77.34070208
 Coulomb energy                             :      -142.11731056
 Exchange energy                            :       -10.61262976
 Correlation energy                         :        -0.43838998
 
 DOS at Fermi energy (states/Ha/cell)       :         0.66804264
 
 Electron charges :
     core                                   :         4.00000000
     core leakage                           :         0.00136816
     valence                                :         8.00000000
     interstitial                           :         4.22774321
     charge in muffin-tin spheres :
                  atom     1     C          :         3.88612840
                  atom     2     C          :         3.88612840
     total charge in muffin-tins            :         7.77225679
     total charge                           :        12.00000000
 
 Wall time (seconds)                        :       119.51
 
 RMS change in effective potential (target) :  0.364840E-01  ( 0.100000E-05)
 Absolute change in total energy   (target) :   1.16960      ( 0.100000E-06)
 Charge distance                   (target) :  0.164454E-01  ( 0.100000E-04)
 Abs. change in max-nonIBS-force   (target) :   0.00000      ( 0.250000E-05)
 
++++++++++++++++++++++++++++++++++++++++++++++++++++++++++++++++++++++++++++++++
| SCF iteration number :    6                                                  +
++++++++++++++++++++++++++++++++++++++++++++++++++++++++++++++++++++++++++++++++
 Total energy                               :       -76.15205339
 _______________________________________________________________
 Fermi energy                               :         0.29918809
 Kinetic energy                             :        77.12199445
 Coulomb energy                             :      -142.20873135
 Exchange energy                            :       -10.62726776
 Correlation energy                         :        -0.43804872
 
 DOS at Fermi energy (states/Ha/cell)       :         0.65132221
 
 Electron charges :
     core                                   :         4.00000000
     core leakage                           :         0.00136148
     valence                                :         8.00000000
     interstitial                           :         4.20326694
     charge in muffin-tin spheres :
                  atom     1     C          :         3.89836653
                  atom     2     C          :         3.89836653
     total charge in muffin-tins            :         7.79673306
     total charge                           :        12.00000000
 
 Wall time (seconds)                        :       143.01
 
 RMS change in effective potential (target) :  0.138964E-02  ( 0.100000E-05)
 Absolute change in total energy   (target) :  0.324425      ( 0.100000E-06)
 Charge distance                   (target) :  0.471843E-02  ( 0.100000E-04)
 Abs. change in max-nonIBS-force   (target) :   0.00000      ( 0.250000E-05)
 
++++++++++++++++++++++++++++++++++++++++++++++++++++++++++++++++++++++++++++++++
| SCF iteration number :    7                                                  +
++++++++++++++++++++++++++++++++++++++++++++++++++++++++++++++++++++++++++++++++
 Total energy                               :       -76.14603234
 _______________________________________________________________
 Fermi energy                               :         0.29934458
 Kinetic energy                             :        77.12690870
 Coulomb energy                             :      -142.20787550
 Exchange energy                            :       -10.62701535
 Correlation energy                         :        -0.43805020
 
 DOS at Fermi energy (states/Ha/cell)       :         0.65177619
 
 Electron charges :
     core                                   :         4.00000000
     core leakage                           :         0.00136139
     valence                                :         8.00000000
     interstitial                           :         4.20373661
     charge in muffin-tin spheres :
                  atom     1     C          :         3.89813169
                  atom     2     C          :         3.89813169
     total charge in muffin-tins            :         7.79626339
     total charge                           :        12.00000000
 
 Wall time (seconds)                        :       166.66
 
 RMS change in effective potential (target) :  0.251491E-03  ( 0.100000E-05)
 Absolute change in total energy   (target) :  0.602104E-02  ( 0.100000E-06)
 Charge distance                   (target) :  0.115890E-03  ( 0.100000E-04)
 Abs. change in max-nonIBS-force   (target) :   0.00000      ( 0.250000E-05)
 
++++++++++++++++++++++++++++++++++++++++++++++++++++++++++++++++++++++++++++++++
| SCF iteration number :    8                                                  +
++++++++++++++++++++++++++++++++++++++++++++++++++++++++++++++++++++++++++++++++
 Total energy                               :       -76.14841550
 _______________________________________________________________
 Fermi energy                               :         0.29928234
 Kinetic energy                             :        77.12513958
 Coulomb energy                             :      -142.20839114
 Exchange energy                            :       -10.62711538
 Correlation energy                         :        -0.43804855
 
 DOS at Fermi energy (states/Ha/cell)       :         0.65163415
 
 Electron charges :
     core                                   :         4.00000000
     core leakage                           :         0.00136137
     valence                                :         8.00000000
     interstitial                           :         4.20356259
     charge in muffin-tin spheres :
                  atom     1     C          :         3.89821871
                  atom     2     C          :         3.89821871
     total charge in muffin-tins            :         7.79643741
     total charge                           :        12.00000000
 
 Wall time (seconds)                        :       189.99
 
 RMS change in effective potential (target) :  0.376541E-04  ( 0.100000E-05)
 Absolute change in total energy   (target) :  0.238315E-02  ( 0.100000E-06)
 Charge distance                   (target) :  0.362115E-04  ( 0.100000E-04)
 Abs. change in max-nonIBS-force   (target) :   0.00000      ( 0.250000E-05)
 
++++++++++++++++++++++++++++++++++++++++++++++++++++++++++++++++++++++++++++++++
| SCF iteration number :    9                                                  +
++++++++++++++++++++++++++++++++++++++++++++++++++++++++++++++++++++++++++++++++
 Total energy                               :       -76.14826965
 _______________________________________________________________
 Fermi energy                               :         0.29928574
 Kinetic energy                             :        77.12523125
 Coulomb energy                             :      -142.20834353
 Exchange energy                            :       -10.62710865
 Correlation energy                         :        -0.43804873
 
 DOS at Fermi energy (states/Ha/cell)       :         0.65164042
 
 Electron charges :
     core                                   :         4.00000000
     core leakage                           :         0.00136138
     valence                                :         8.00000000
     interstitial                           :         4.20357342
     charge in muffin-tin spheres :
                  atom     1     C          :         3.89821329
                  atom     2     C          :         3.89821329
     total charge in muffin-tins            :         7.79642658
     total charge                           :        12.00000000
 
 Wall time (seconds)                        :       213.45
 
 RMS change in effective potential (target) :  0.206098E-05  ( 0.100000E-05)
 Absolute change in total energy   (target) :  0.145849E-03  ( 0.100000E-06)
 Charge distance                   (target) :  0.202579E-05  ( 0.100000E-04)
 Abs. change in max-nonIBS-force   (target) :   0.00000      ( 0.250000E-05)
 
++++++++++++++++++++++++++++++++++++++++++++++++++++++++++++++++++++++++++++++++
| SCF iteration number :   10                                                  +
++++++++++++++++++++++++++++++++++++++++++++++++++++++++++++++++++++++++++++++++
 Total energy                               :       -76.14827223
 _______________________________________________________________
 Fermi energy                               :         0.29928571
 Kinetic energy                             :        77.12522993
 Coulomb energy                             :      -142.20834466
 Exchange energy                            :       -10.62710878
 Correlation energy                         :        -0.43804872
 
 DOS at Fermi energy (states/Ha/cell)       :         0.65164032
 
 Electron charges :
     core                                   :         4.00000000
     core leakage                           :         0.00136138
     valence                                :         8.00000000
     interstitial                           :         4.20357323
     charge in muffin-tin spheres :
                  atom     1     C          :         3.89821339
                  atom     2     C          :         3.89821339
     total charge in muffin-tins            :         7.79642677
     total charge                           :        12.00000000
 
 Wall time (seconds)                        :       236.86
 
 RMS change in effective potential (target) :  0.486550E-07  ( 0.100000E-05)
 Absolute change in total energy   (target) :  0.258473E-05  ( 0.100000E-06)
 Charge distance                   (target) :  0.362736E-07  ( 0.100000E-04)
 Abs. change in max-nonIBS-force   (target) :   0.00000      ( 0.250000E-05)
 
++++++++++++++++++++++++++++++++++++++++++++++++++++++++++++++++++++++++++++++++
| SCF iteration number :   11                                                  +
++++++++++++++++++++++++++++++++++++++++++++++++++++++++++++++++++++++++++++++++
 Total energy                               :       -76.14827193
 _______________________________________________________________
 Fermi energy                               :         0.29928572
 Kinetic energy                             :        77.12523017
 Coulomb energy                             :      -142.20834461
 Exchange energy                            :       -10.62710877
 Correlation energy                         :        -0.43804872
 
 DOS at Fermi energy (states/Ha/cell)       :         0.65164034
 
 Electron charges :
     core                                   :         4.00000000
     core leakage                           :         0.00136138
     valence                                :         8.00000000
     interstitial                           :         4.20357325
     charge in muffin-tin spheres :
                  atom     1     C          :         3.89821338
                  atom     2     C          :         3.89821338
     total charge in muffin-tins            :         7.79642675
     total charge                           :        12.00000000
 
 Wall time (seconds)                        :       260.17
 
 RMS change in effective potential (target) :  0.199693E-07  ( 0.100000E-05)
 Absolute change in total energy   (target) :  0.303902E-06  ( 0.100000E-06)
 Charge distance                   (target) :  0.620830E-08  ( 0.100000E-04)
 Abs. change in max-nonIBS-force   (target) :   0.00000      ( 0.250000E-05)
 
++++++++++++++++++++++++++++++++++++++++++++++++++++++++++++++++++++++++++++++++
| SCF iteration number :   12                                                  +
++++++++++++++++++++++++++++++++++++++++++++++++++++++++++++++++++++++++++++++++
 Total energy                               :       -76.14827194
 _______________________________________________________________
 Fermi energy                               :         0.29928572
 Kinetic energy                             :        77.12523017
 Coulomb energy                             :      -142.20834462
 Exchange energy                            :       -10.62710877
 Correlation energy                         :        -0.43804872
 
 DOS at Fermi energy (states/Ha/cell)       :         0.65164034
 
 Electron charges :
     core                                   :         4.00000000
     core leakage                           :         0.00136138
     valence                                :         8.00000000
     interstitial                           :         4.20357325
     charge in muffin-tin spheres :
                  atom     1     C          :         3.89821338
                  atom     2     C          :         3.89821338
     total charge in muffin-tins            :         7.79642675
     total charge                           :        12.00000000
 
 Wall time (seconds)                        :       283.49
 
 RMS change in effective potential (target) :  0.780722E-08  ( 0.100000E-05)
 Absolute change in total energy   (target) :  0.750731E-08  ( 0.100000E-06)
 Charge distance                   (target) :  0.169440E-09  ( 0.100000E-04)
 Abs. change in max-nonIBS-force   (target) :   0.00000      ( 0.250000E-05)
 
++++++++++++++++++++++++++++++++++++++++++++++++++++++++++++++++++++++++++++++++
| Convergence targets achieved. Performing final SCF iteration                 +
++++++++++++++++++++++++++++++++++++++++++++++++++++++++++++++++++++++++++++++++
 Total energy                               :       -76.15835115
 _______________________________________________________________
 Fermi energy                               :         0.29928572
 Kinetic energy                             :        77.12523016
 Coulomb energy                             :      -142.20834462
 Exchange energy                            :       -10.62710877
 Correlation energy                         :        -0.43804872
 DFT-D2 dispersion correction               :        -0.01007920
 
 DOS at Fermi energy (states/Ha/cell)       :         0.65164034
 
 Electron charges :
     core                                   :         4.00000000
     core leakage                           :         0.00136138
     valence                                :         8.00000000
     interstitial                           :         4.20357325
     charge in muffin-tin spheres :
                  atom     1     C          :         3.89821338
                  atom     2     C          :         3.89821338
     total charge in muffin-tins            :         7.79642675
     total charge                           :        12.00000000
 
++++++++++++++++++++++++++++++++++++++++++++++++++++++++++++++++++++++++++++++++
| Self-consistent loop stopped                                                 +
++++++++++++++++++++++++++++++++++++++++++++++++++++++++++++++++++++++++++++++++
 STATE.OUT is written
 
--------------------------------------------------------------------------------
| Writing atomic positions and forces                                          -
--------------------------------------------------------------------------------
 
 Atomic positions (lattice) :
 atom     1   C  :     0.00000000    0.00000000    0.00000000
 atom     2   C  :     0.33333333    0.33333333    0.00000000
 
 Total atomic forces including IBS (cartesian) :
 atom     1   C  :     0.00000000    0.00000000    0.00000000
 atom     2   C  :     0.00000000    0.00000000    0.00000000
 
 Atomic force components including IBS (cartesian) :
 atom     1   C  :     0.00000000    0.00000000    0.00000000   HF force
                 :     0.00000000    0.00000000    0.00000000   core correction
                 :     0.00000000    0.00000000    0.00000000   IBS correction
                 :     0.00000000    0.00000000    0.00000000   DFT-D2 force
 atom     2   C  :     0.00000000    0.00000000    0.00000000   HF force
                 :     0.00000000    0.00000000    0.00000000   core correction
                 :     0.00000000    0.00000000    0.00000000   IBS correction
                 :     0.00000000    0.00000000    0.00000000   DFT-D2 force
 
********************************************************************************
| Groundstate module stopped                                                   *
********************************************************************************
 
********************************************************************************
| Structure-optimization module started                                        *
********************************************************************************
 Output level for this task is set to normal
 
 Maximum displacement tau_BFGS   is         :         0.3000
 Maximum displacement tau_newton is         :         0.8000
 Maximum force target reached already at the initial configuration
 
********************************************************************************
| Structure-optimization module stopped                                        *
********************************************************************************
 
 Total time spent (seconds)                 :       326.93
 
================================================================================
| EXCITING BORON stopped                                                       =
================================================================================
