   1    1    1    2
  1.0903552e+01   2.4890159e-10   2.4890159e-10   2.4890159e-10   0.0000000e+00
            0.000000e+00
  CAR
 DOS and projected DOS file by LOBSTER. Energy is shifted such that the Fermi level lies at 0 eV. 
     23.49507679      -3.64060160   201      13.45487578       1.00000000
-17.09548   0.00000   0.00000   0.00000   0.00000
-16.95980   0.00000   0.00000   0.00000   0.00000
-16.82412   0.00000   0.00000   0.00000   0.00000
-16.68844   0.00000   0.00000   0.00000   0.00000
-16.55276   0.00000   0.00000   0.00000   0.00000
-16.41709   0.00000   0.00000   0.00000   0.00000
-16.28141   0.00000   0.00000   0.00000   0.00000
-16.14573   0.00000   0.00000   0.00000   0.00000
-16.01005   0.00000   0.00000   0.00000   0.00000
-15.87437   0.00000   0.00000   0.00000   0.00000
-15.73869   0.00000   0.00000   0.00000   0.00000
-15.60302   0.00000   0.00000   0.00000   0.00000
-15.46734   0.00000   0.00000   0.00000   0.00000
-15.33166   0.00000   0.00000   0.00000   0.00000
-15.19598   0.00000   0.00000   0.00000   0.00000
-15.06030   0.00000   0.00000   0.00000   0.00000
-14.92462   0.00000   0.00000   0.00000   0.00000
-14.78894   0.00000   0.00000   0.00000   0.00000
-14.65327   0.00000   0.00000   0.00000   0.00000
-14.51759   0.00000   0.00000   0.00000   0.00000
-14.38191   0.00000   0.00000   0.00000   0.00000
-14.24623   0.00000   0.00000   0.00000   0.00000
-14.11055   0.00000   0.00000   0.00000   0.00000
-13.97487   0.00000   0.00000   0.00000   0.00000
-13.83920   0.00000   0.00000   0.00000   0.00000
-13.70352   0.00000   0.00000   0.00000   0.00000
-13.56784   0.00000   0.00000   0.00000   0.00000
-13.43216   0.00000   0.00000   0.00000   0.00000
-13.29648   0.00000   0.00000   0.00000   0.00000
-13.16080   0.00000   0.00000   0.00000   0.00000
-13.02513   0.00000   0.00000   0.00000   0.00000
-12.88945   0.00000   0.00000   0.00000   0.00000
-12.75377   0.00000   0.00000   0.00000   0.00000
-12.61809   0.00000   0.00000   0.00000   0.00000
-12.48241   0.00000   0.00000   0.00000   0.00000
-12.34673   0.00000   0.00000   0.00000   0.00000
-12.21106   0.00000   0.00000   0.00000   0.00000
-12.07538   0.00000   0.00000   0.00000   0.00000
-11.93970   0.00000   0.00000   0.00000   0.00000
-11.80402   0.00000   0.00000   0.00000   0.00000
-11.66834   0.00000   0.00000   0.00000   0.00000
-11.53266   0.00000   0.00000   0.00000   0.00000
-11.39698   0.00000   0.00000   0.00000   0.00000
-11.26131   0.00000   0.00000   0.00000   0.00000
-11.12563   0.00000   0.00000   0.00000   0.00000
-10.98995   0.00000   0.00000   0.00000   0.00000
-10.85427   0.00000   0.00000   0.00000   0.00000
-10.71859   0.00000   0.00000   0.00000   0.00000
-10.58291   0.00000   0.00000   0.00000   0.00000
-10.44724   0.00000   0.00000   0.00000   0.00000
-10.31156   0.00000   0.00000   0.00000   0.00000
-10.17588   0.00000   0.00000   0.00000   0.00000
-10.04020   0.00000   0.00000   0.00000   0.00000
 -9.90452   0.00000   0.00000   0.00000   0.00000
 -9.76884   0.00000   0.00000   0.00000   0.00000
 -9.63317   0.00000   0.00000   0.00000   0.00000
 -9.49749   0.00006   0.00005   0.00001   0.00001
 -9.36181   0.00057   0.00045   0.00009   0.00007
 -9.22613   0.00291   0.00248   0.00048   0.00041
 -9.09045   0.00808   0.00741   0.00158   0.00141
 -8.95477   0.01323   0.01273   0.00337   0.00314
 -8.81910   0.01851   0.01779   0.00588   0.00555
 -8.68342   0.02594   0.02528   0.00940   0.00898
 -8.54774   0.02677   0.02719   0.01303   0.01267
 -8.41206   0.02454   0.02448   0.01636   0.01599
 -8.27638   0.03361   0.03250   0.02092   0.02040
 -8.14070   0.04189   0.04176   0.02661   0.02607
 -8.00503   0.04127   0.04170   0.03220   0.03173
 -7.86935   0.03842   0.03902   0.03742   0.03702
 -7.73367   0.03409   0.03464   0.04204   0.04172
 -7.59799   0.04403   0.04343   0.04802   0.04761
 -7.46231   0.06231   0.06211   0.05647   0.05604
 -7.32663   0.06077   0.06194   0.06472   0.06444
 -7.19095   0.05296   0.05418   0.07190   0.07179
 -7.05528   0.04825   0.04927   0.07845   0.07848
 -6.91960   0.04711   0.04836   0.08484   0.08504
 -6.78392   0.06277   0.06494   0.09335   0.09385
 -6.64824   0.08083   0.08429   0.10432   0.10529
 -6.51256   0.08790   0.08991   0.11625   0.11749
 -6.37688   0.07548   0.07611   0.12649   0.12781
 -6.24121   0.06113   0.06566   0.13478   0.13672
 -6.10553   0.06883   0.07442   0.14412   0.14682
 -5.96985   0.08095   0.08769   0.15510   0.15872
 -5.83417   0.09375   0.10678   0.16782   0.17320
 -5.69849   0.10976   0.12955   0.18272   0.19078
 -5.56281   0.12523   0.13479   0.19971   0.20907
 -5.42714   0.11490   0.11792   0.21530   0.22507
 -5.29146   0.09642   0.11700   0.22838   0.24094
 -5.15578   0.10252   0.15637   0.24229   0.26216
 -5.02010   0.13331   0.23722   0.26038   0.29434
 -4.88442   0.18232   0.30309   0.28511   0.33547
 -4.74874   0.21653   0.35694   0.31449   0.38389
 -4.61307   0.22742   0.42978   0.34535   0.44221
 -4.47739   0.25688   0.49367   0.38020   0.50919
 -4.34171   0.33407   0.56265   0.42553   0.58553
 -4.20603   0.42751   0.63766   0.48353   0.67204
 -4.07035   0.48874   0.71817   0.54984   0.76948
 -3.93467   0.50013   0.83697   0.61770   0.88304
 -3.79899   0.47699   0.92827   0.68242   1.00899
 -3.66332   0.51366   0.94345   0.75211   1.13699
 -3.52764   0.65158   0.89126   0.84051   1.25792
 -3.39196   0.75759   0.84309   0.94330   1.37231
 -3.25628   0.82291   0.83532   1.05495   1.48564
 -3.12060   0.84975   0.88188   1.17024   1.60530
 -2.98492   0.81879   0.98293   1.28134   1.73866
 -2.84925   0.80367   1.09392   1.39038   1.88708
 -2.71357   0.79538   1.18506   1.49829   2.04787
 -2.57789   0.81264   1.28066   1.60855   2.22162
 -2.44221   0.90563   1.39845   1.73143   2.41136
 -2.30653   1.02211   1.50102   1.87010   2.61502
 -2.17085   1.11582   1.54272   2.02150   2.82433
 -2.03518   1.19384   1.40648   2.18348   3.01516
 -1.89950   1.26226   1.17336   2.35474   3.17436
 -1.76382   1.31058   1.02510   2.53255   3.31344
 -1.62814   1.37391   1.03987   2.71896   3.45453
 -1.49246   1.41015   1.18903   2.91029   3.61586
 -1.35678   1.28190   1.31945   3.08422   3.79488
 -1.22111   1.08845   1.34521   3.23189   3.97739
 -1.08543   1.03129   1.33222   3.37182   4.15815
 -0.94975   1.08452   1.31344   3.51897   4.33635
 -0.81407   1.19306   1.44281   3.68084   4.53211
 -0.67839   1.24422   1.71158   3.84965   4.76434
 -0.54271   1.19104   1.77019   4.01125   5.00451
 -0.40704   1.17512   1.29389   4.17069   5.18007
 -0.27136   1.14231   0.58963   4.32568   5.26007
 -0.13568   1.18770   0.19781   4.48682   5.28690
 -0.00000   1.42082   0.14122   4.67960   5.30606
  0.13568   1.65446   0.21159   4.90407   5.33477
  0.27136   1.51326   0.24415   5.10939   5.36790
  0.40704   0.92034   0.18082   5.23426   5.39243
  0.54271   0.39542   0.11357   5.28791   5.40784
  0.67839   0.24994   0.11316   5.32182   5.42319
  0.81407   0.28459   0.14599   5.36043   5.44300
  0.94975   0.23915   0.17513   5.39288   5.46676
  1.08543   0.15768   0.18842   5.41427   5.49233
  1.22111   0.13419   0.17054   5.43248   5.51547
  1.35678   0.13969   0.13465   5.45143   5.53373
  1.49246   0.18247   0.10918   5.47619   5.54855
  1.62814   0.21057   0.09836   5.50476   5.56189
  1.76382   0.17486   0.10989   5.52849   5.57680
  1.89950   0.13518   0.13250   5.54683   5.59478
  2.03518   0.12832   0.15651   5.56424   5.61602
  2.17085   0.13715   0.17675   5.58284   5.64000
  2.30653   0.13990   0.17504   5.60183   5.66375
  2.44221   0.15752   0.14111   5.62320   5.68289
  2.57789   0.18173   0.10214   5.64785   5.69675
  2.71357   0.17068   0.09340   5.67101   5.70942
  2.84925   0.12921   0.09785   5.68854   5.72270
  2.98492   0.10639   0.08870   5.70298   5.73474
  3.12060   0.10700   0.08617   5.71750   5.74643
  3.25628   0.10410   0.13396   5.73162   5.76460
  3.39196   0.10517   0.17248   5.74589   5.78800
  3.52764   0.13645   0.14434   5.76440   5.80759
  3.66332   0.15878   0.10366   5.78595   5.82165
  3.79899   0.13161   0.08558   5.80380   5.83326
  3.93467   0.10155   0.07157   5.81758   5.84297
  4.07035   0.09244   0.07933   5.83012   5.85374
  4.20603   0.08546   0.10291   5.84172   5.86770
  4.34171   0.08772   0.08611   5.85362   5.87938
  4.47739   0.10230   0.06758   5.86750   5.88855
  4.61307   0.09057   0.09493   5.87979   5.90143
  4.74874   0.07978   0.11039   5.89062   5.91641
  4.88442   0.10345   0.06880   5.90465   5.92574
  5.02010   0.10413   0.03275   5.91878   5.93019
  5.15578   0.05845   0.04200   5.92671   5.93589
  5.29146   0.03188   0.06301   5.93103   5.94443
  5.42714   0.04716   0.07103   5.93743   5.95407
  5.56281   0.06439   0.08564   5.94617   5.96569
  5.69849   0.06725   0.10749   5.95529   5.98028
  5.83417   0.07139   0.12496   5.96498   5.99723
  5.96985   0.07806   0.13776   5.97557   6.01592
  6.10553   0.10114   0.14814   5.98929   6.03602
  6.24121   0.13921   0.16890   6.00818   6.05894
  6.37688   0.16484   0.16725   6.03055   6.08163
  6.51256   0.17573   0.14200   6.05439   6.10090
  6.64824   0.17072   0.13924   6.07755   6.11979
  6.78392   0.15003   0.13565   6.09791   6.13819
  6.91960   0.14418   0.12572   6.11747   6.15525
  7.05528   0.14803   0.13419   6.13755   6.17346
  7.19095   0.14035   0.13655   6.15660   6.19198
  7.32663   0.13490   0.12466   6.17490   6.20890
  7.46231   0.13580   0.11915   6.19332   6.22506
  7.59799   0.13549   0.11599   6.21171   6.24080
  7.73367   0.12885   0.11379   6.22919   6.25624
  7.86935   0.11650   0.14436   6.24500   6.27583
  8.00503   0.12578   0.17556   6.26206   6.29965
  8.14070   0.16400   0.14703   6.28431   6.31959
  8.27638   0.16594   0.10426   6.30683   6.33374
  8.41206   0.12478   0.09786   6.32376   6.34702
  8.54774   0.10085   0.10539   6.33744   6.36132
  8.68342   0.10624   0.10060   6.35186   6.37497
  8.81910   0.10864   0.09475   6.36660   6.38782
  8.95477   0.09547   0.09631   6.37955   6.40089
  9.09045   0.09186   0.09313   6.39201   6.41352
  9.22613   0.09662   0.09487   6.40512   6.42639
  9.36181   0.09448   0.11835   6.41794   6.44245
  9.49749   0.10321   0.16556   6.43195   6.46491
  9.63317   0.14024   0.20681   6.45097   6.49297
  9.76884   0.19498   0.20588   6.47743   6.52091
  9.90452   0.22107   0.17378   6.50742   6.54449
 10.04020   0.19669   0.14649   6.53411   6.56436
     10.04020101     -17.09547739   201      13.45487578       1.00000000; Z= 28; 4s 3p_y 3p_z 3p_x 3d_xy 3d_yz 3d_z^2 3d_xz 3d_x^2-y^2 
-17.09548   0.00000   0.00000   0.00000   0.00000   0.00000   0.00000   0.00000   0.00000   0.00000   0.00000   0.00000   0.00000   0.00000   0.00000   0.00000   0.00000   0.00000   0.00000
-16.95980   0.00000   0.00000   0.00000   0.00000   0.00000   0.00000   0.00000   0.00000   0.00000   0.00000   0.00000   0.00000   0.00000   0.00000   0.00000   0.00000   0.00000   0.00000
-16.82412   0.00000   0.00000   0.00000   0.00000   0.00000   0.00000   0.00000   0.00000   0.00000   0.00000   0.00000   0.00000   0.00000   0.00000   0.00000   0.00000   0.00000   0.00000
-16.68844   0.00000   0.00000   0.00000   0.00000   0.00000   0.00000   0.00000   0.00000   0.00000   0.00000   0.00000   0.00000   0.00000   0.00000   0.00000   0.00000   0.00000   0.00000
-16.55276   0.00000   0.00000   0.00000   0.00000   0.00000   0.00000   0.00000   0.00000   0.00000   0.00000   0.00000   0.00000   0.00000   0.00000   0.00000   0.00000   0.00000   0.00000
-16.41709   0.00000   0.00000   0.00000   0.00000   0.00000   0.00000   0.00000   0.00000   0.00000   0.00000   0.00000   0.00000   0.00000   0.00000   0.00000   0.00000   0.00000   0.00000
-16.28141   0.00000   0.00000   0.00000   0.00000   0.00000   0.00000   0.00000   0.00000   0.00000   0.00000   0.00000   0.00000   0.00000   0.00000   0.00000   0.00000   0.00000   0.00000
-16.14573   0.00000   0.00000   0.00000   0.00000   0.00000   0.00000   0.00000   0.00000   0.00000   0.00000   0.00000   0.00000   0.00000   0.00000   0.00000   0.00000   0.00000   0.00000
-16.01005   0.00000   0.00000   0.00000   0.00000   0.00000   0.00000   0.00000   0.00000   0.00000   0.00000   0.00000   0.00000   0.00000   0.00000   0.00000   0.00000   0.00000   0.00000
-15.87437   0.00000   0.00000   0.00000   0.00000   0.00000   0.00000   0.00000   0.00000   0.00000   0.00000   0.00000   0.00000   0.00000   0.00000   0.00000   0.00000   0.00000   0.00000
-15.73869   0.00000   0.00000   0.00000   0.00000   0.00000   0.00000   0.00000   0.00000   0.00000   0.00000   0.00000   0.00000   0.00000   0.00000   0.00000   0.00000   0.00000   0.00000
-15.60302   0.00000   0.00000   0.00000   0.00000   0.00000   0.00000   0.00000   0.00000   0.00000   0.00000   0.00000   0.00000   0.00000   0.00000   0.00000   0.00000   0.00000   0.00000
-15.46734   0.00000   0.00000   0.00000   0.00000   0.00000   0.00000   0.00000   0.00000   0.00000   0.00000   0.00000   0.00000   0.00000   0.00000   0.00000   0.00000   0.00000   0.00000
-15.33166   0.00000   0.00000   0.00000   0.00000   0.00000   0.00000   0.00000   0.00000   0.00000   0.00000   0.00000   0.00000   0.00000   0.00000   0.00000   0.00000   0.00000   0.00000
-15.19598   0.00000   0.00000   0.00000   0.00000   0.00000   0.00000   0.00000   0.00000   0.00000   0.00000   0.00000   0.00000   0.00000   0.00000   0.00000   0.00000   0.00000   0.00000
-15.06030   0.00000   0.00000   0.00000   0.00000   0.00000   0.00000   0.00000   0.00000   0.00000   0.00000   0.00000   0.00000   0.00000   0.00000   0.00000   0.00000   0.00000   0.00000
-14.92462   0.00000   0.00000   0.00000   0.00000   0.00000   0.00000   0.00000   0.00000   0.00000   0.00000   0.00000   0.00000   0.00000   0.00000   0.00000   0.00000   0.00000   0.00000
-14.78894   0.00000   0.00000   0.00000   0.00000   0.00000   0.00000   0.00000   0.00000   0.00000   0.00000   0.00000   0.00000   0.00000   0.00000   0.00000   0.00000   0.00000   0.00000
-14.65327   0.00000   0.00000   0.00000   0.00000   0.00000   0.00000   0.00000   0.00000   0.00000   0.00000   0.00000   0.00000   0.00000   0.00000   0.00000   0.00000   0.00000   0.00000
-14.51759   0.00000   0.00000   0.00000   0.00000   0.00000   0.00000   0.00000   0.00000   0.00000   0.00000   0.00000   0.00000   0.00000   0.00000   0.00000   0.00000   0.00000   0.00000
-14.38191   0.00000   0.00000   0.00000   0.00000   0.00000   0.00000   0.00000   0.00000   0.00000   0.00000   0.00000   0.00000   0.00000   0.00000   0.00000   0.00000   0.00000   0.00000
-14.24623   0.00000   0.00000   0.00000   0.00000   0.00000   0.00000   0.00000   0.00000   0.00000   0.00000   0.00000   0.00000   0.00000   0.00000   0.00000   0.00000   0.00000   0.00000
-14.11055   0.00000   0.00000   0.00000   0.00000   0.00000   0.00000   0.00000   0.00000   0.00000   0.00000   0.00000   0.00000   0.00000   0.00000   0.00000   0.00000   0.00000   0.00000
-13.97487   0.00000   0.00000   0.00000   0.00000   0.00000   0.00000   0.00000   0.00000   0.00000   0.00000   0.00000   0.00000   0.00000   0.00000   0.00000   0.00000   0.00000   0.00000
-13.83920   0.00000   0.00000   0.00000   0.00000   0.00000   0.00000   0.00000   0.00000   0.00000   0.00000   0.00000   0.00000   0.00000   0.00000   0.00000   0.00000   0.00000   0.00000
-13.70352   0.00000   0.00000   0.00000   0.00000   0.00000   0.00000   0.00000   0.00000   0.00000   0.00000   0.00000   0.00000   0.00000   0.00000   0.00000   0.00000   0.00000   0.00000
-13.56784   0.00000   0.00000   0.00000   0.00000   0.00000   0.00000   0.00000   0.00000   0.00000   0.00000   0.00000   0.00000   0.00000   0.00000   0.00000   0.00000   0.00000   0.00000
-13.43216   0.00000   0.00000   0.00000   0.00000   0.00000   0.00000   0.00000   0.00000   0.00000   0.00000   0.00000   0.00000   0.00000   0.00000   0.00000   0.00000   0.00000   0.00000
-13.29648   0.00000   0.00000   0.00000   0.00000   0.00000   0.00000   0.00000   0.00000   0.00000   0.00000   0.00000   0.00000   0.00000   0.00000   0.00000   0.00000   0.00000   0.00000
-13.16080   0.00000   0.00000   0.00000   0.00000   0.00000   0.00000   0.00000   0.00000   0.00000   0.00000   0.00000   0.00000   0.00000   0.00000   0.00000   0.00000   0.00000   0.00000
-13.02513   0.00000   0.00000   0.00000   0.00000   0.00000   0.00000   0.00000   0.00000   0.00000   0.00000   0.00000   0.00000   0.00000   0.00000   0.00000   0.00000   0.00000   0.00000
-12.88945   0.00000   0.00000   0.00000   0.00000   0.00000   0.00000   0.00000   0.00000   0.00000   0.00000   0.00000   0.00000   0.00000   0.00000   0.00000   0.00000   0.00000   0.00000
-12.75377   0.00000   0.00000   0.00000   0.00000   0.00000   0.00000   0.00000   0.00000   0.00000   0.00000   0.00000   0.00000   0.00000   0.00000   0.00000   0.00000   0.00000   0.00000
-12.61809   0.00000   0.00000   0.00000   0.00000   0.00000   0.00000   0.00000   0.00000   0.00000   0.00000   0.00000   0.00000   0.00000   0.00000   0.00000   0.00000   0.00000   0.00000
-12.48241   0.00000   0.00000   0.00000   0.00000   0.00000   0.00000   0.00000   0.00000   0.00000   0.00000   0.00000   0.00000   0.00000   0.00000   0.00000   0.00000   0.00000   0.00000
-12.34673   0.00000   0.00000   0.00000   0.00000   0.00000   0.00000   0.00000   0.00000   0.00000   0.00000   0.00000   0.00000   0.00000   0.00000   0.00000   0.00000   0.00000   0.00000
-12.21106   0.00000   0.00000   0.00000   0.00000   0.00000   0.00000   0.00000   0.00000   0.00000   0.00000   0.00000   0.00000   0.00000   0.00000   0.00000   0.00000   0.00000   0.00000
-12.07538   0.00000   0.00000   0.00000   0.00000   0.00000   0.00000   0.00000   0.00000   0.00000   0.00000   0.00000   0.00000   0.00000   0.00000   0.00000   0.00000   0.00000   0.00000
-11.93970   0.00000   0.00000   0.00000   0.00000   0.00000   0.00000   0.00000   0.00000   0.00000   0.00000   0.00000   0.00000   0.00000   0.00000   0.00000   0.00000   0.00000   0.00000
-11.80402   0.00000   0.00000   0.00000   0.00000   0.00000   0.00000   0.00000   0.00000   0.00000   0.00000   0.00000   0.00000   0.00000   0.00000   0.00000   0.00000   0.00000   0.00000
-11.66834   0.00000   0.00000   0.00000   0.00000   0.00000   0.00000   0.00000   0.00000   0.00000   0.00000   0.00000   0.00000   0.00000   0.00000   0.00000   0.00000   0.00000   0.00000
-11.53266   0.00000   0.00000   0.00000   0.00000   0.00000   0.00000   0.00000   0.00000   0.00000   0.00000   0.00000   0.00000   0.00000   0.00000   0.00000   0.00000   0.00000   0.00000
-11.39698   0.00000   0.00000   0.00000   0.00000   0.00000   0.00000   0.00000   0.00000   0.00000   0.00000   0.00000   0.00000   0.00000   0.00000   0.00000   0.00000   0.00000   0.00000
-11.26131   0.00000   0.00000   0.00000   0.00000   0.00000   0.00000   0.00000   0.00000   0.00000   0.00000   0.00000   0.00000   0.00000   0.00000   0.00000   0.00000   0.00000   0.00000
-11.12563   0.00000   0.00000   0.00000   0.00000   0.00000   0.00000   0.00000   0.00000   0.00000   0.00000   0.00000   0.00000   0.00000   0.00000   0.00000   0.00000   0.00000   0.00000
-10.98995   0.00000   0.00000   0.00000   0.00000   0.00000   0.00000   0.00000   0.00000   0.00000   0.00000   0.00000   0.00000   0.00000   0.00000   0.00000   0.00000   0.00000   0.00000
-10.85427   0.00000   0.00000   0.00000   0.00000   0.00000   0.00000   0.00000   0.00000   0.00000   0.00000   0.00000   0.00000   0.00000   0.00000   0.00000   0.00000   0.00000   0.00000
-10.71859   0.00000   0.00000   0.00000   0.00000   0.00000   0.00000   0.00000   0.00000   0.00000   0.00000   0.00000   0.00000   0.00000   0.00000   0.00000   0.00000   0.00000   0.00000
-10.58291   0.00000   0.00000   0.00000   0.00000   0.00000   0.00000   0.00000   0.00000   0.00000   0.00000   0.00000   0.00000   0.00000   0.00000   0.00000   0.00000   0.00000   0.00000
-10.44724   0.00000   0.00000   0.00000   0.00000   0.00000   0.00000   0.00000   0.00000   0.00000   0.00000   0.00000   0.00000   0.00000   0.00000   0.00000   0.00000   0.00000   0.00000
-10.31156   0.00000   0.00000   0.00000   0.00000   0.00000   0.00000   0.00000   0.00000   0.00000   0.00000  -0.00000  -0.00000   0.00000   0.00000   0.00000   0.00000   0.00000   0.00000
-10.17588   0.00000   0.00000   0.00000   0.00000   0.00000   0.00000   0.00000   0.00000   0.00000   0.00000   0.00000   0.00000   0.00000   0.00000   0.00000   0.00000   0.00000   0.00000
-10.04020   0.00000   0.00000   0.00000   0.00000   0.00000   0.00000   0.00000   0.00000   0.00000   0.00000   0.00000   0.00000   0.00000   0.00000   0.00000   0.00000   0.00000   0.00000
 -9.90452   0.00000   0.00000   0.00000   0.00000   0.00000   0.00000   0.00000   0.00000   0.00000   0.00000   0.00000   0.00000   0.00000   0.00000   0.00000   0.00000   0.00000   0.00000
 -9.76884   0.00000   0.00000   0.00000   0.00000   0.00000   0.00000   0.00000   0.00000   0.00000   0.00000   0.00000   0.00000   0.00000   0.00000   0.00000   0.00000   0.00000   0.00000
 -9.63317   0.00000   0.00000   0.00000   0.00000   0.00000   0.00000   0.00000   0.00000   0.00000   0.00000   0.00000   0.00000   0.00000   0.00000   0.00000   0.00000   0.00000   0.00000
 -9.49749   0.00006   0.00005   0.00000   0.00000   0.00000   0.00000   0.00000   0.00000   0.00000   0.00000   0.00000   0.00000   0.00000   0.00000   0.00000   0.00000   0.00000   0.00000
 -9.36181   0.00057   0.00045   0.00000   0.00000   0.00000   0.00000   0.00000   0.00000   0.00000   0.00000   0.00000   0.00000   0.00000   0.00000   0.00000   0.00000   0.00000   0.00000
 -9.22613   0.00290   0.00248   0.00000   0.00000   0.00000   0.00000   0.00000   0.00000   0.00000   0.00000   0.00000   0.00000   0.00000   0.00000   0.00000   0.00000   0.00000   0.00000
 -9.09045   0.00807   0.00741   0.00000   0.00000   0.00000   0.00000   0.00000   0.00000   0.00000   0.00000   0.00000   0.00000   0.00000   0.00000   0.00000   0.00000   0.00000   0.00000
 -8.95477   0.01321   0.01272   0.00000   0.00000   0.00000   0.00000   0.00000   0.00000   0.00000   0.00000   0.00000   0.00000   0.00000   0.00000   0.00000   0.00000   0.00000   0.00000
 -8.81910   0.01847   0.01776   0.00001   0.00000   0.00001   0.00000   0.00001   0.00000   0.00000   0.00000   0.00000   0.00000   0.00000   0.00000   0.00000   0.00000   0.00000   0.00000
 -8.68342   0.02587   0.02522   0.00001   0.00001   0.00001   0.00001   0.00001   0.00001   0.00001   0.00001   0.00001   0.00001   0.00001   0.00001   0.00001   0.00001   0.00001   0.00001
 -8.54774   0.02669   0.02711   0.00001   0.00001   0.00001   0.00001   0.00001   0.00001   0.00001   0.00001   0.00001   0.00001   0.00001   0.00001   0.00001   0.00001   0.00001   0.00001
 -8.41206   0.02443   0.02437   0.00001   0.00001   0.00001   0.00001   0.00001   0.00001   0.00002   0.00002   0.00002   0.00002   0.00001   0.00002   0.00002   0.00002   0.00001   0.00002
 -8.27638   0.03340   0.03228   0.00002   0.00002   0.00002   0.00002   0.00002   0.00002   0.00003   0.00004   0.00003   0.00004   0.00003   0.00003   0.00003   0.00004   0.00003   0.00003
 -8.14070   0.04157   0.04141   0.00003   0.00003   0.00003   0.00003   0.00003   0.00003   0.00005   0.00006   0.00005   0.00006   0.00004   0.00004   0.00005   0.00006   0.00004   0.00004
 -8.00503   0.04088   0.04126   0.00003   0.00003   0.00003   0.00003   0.00003   0.00003   0.00006   0.00008   0.00006   0.00008   0.00005   0.00006   0.00006   0.00008   0.00005   0.00006
 -7.86935   0.03799   0.03853   0.00003   0.00003   0.00003   0.00003   0.00003   0.00003   0.00007   0.00008   0.00007   0.00008   0.00007   0.00008   0.00007   0.00008   0.00007   0.00008
 -7.73367   0.03361   0.03409   0.00003   0.00003   0.00003   0.00003   0.00003   0.00003   0.00008   0.00009   0.00008   0.00009   0.00008   0.00009   0.00008   0.00009   0.00008   0.00009
 -7.59799   0.04321   0.04251   0.00005   0.00004   0.00005   0.00004   0.00005   0.00004   0.00015   0.00018   0.00015   0.00018   0.00011   0.00012   0.00015   0.00018   0.00011   0.00012
 -7.46231   0.06102   0.06062   0.00006   0.00006   0.00007   0.00006   0.00006   0.00006   0.00024   0.00030   0.00024   0.00030   0.00018   0.00021   0.00024   0.00030   0.00018   0.00021
 -7.32663   0.05938   0.06027   0.00006   0.00006   0.00006   0.00006   0.00005   0.00006   0.00025   0.00032   0.00025   0.00032   0.00024   0.00027   0.00025   0.00032   0.00024   0.00027
 -7.19095   0.05149   0.05240   0.00005   0.00005   0.00005   0.00005   0.00005   0.00005   0.00026   0.00034   0.00026   0.00034   0.00026   0.00031   0.00026   0.00034   0.00026   0.00031
 -7.05528   0.04667   0.04733   0.00005   0.00005   0.00005   0.00005   0.00005   0.00005   0.00030   0.00039   0.00030   0.00039   0.00026   0.00030   0.00030   0.00039   0.00026   0.00030
 -6.91960   0.04528   0.04610   0.00005   0.00004   0.00006   0.00005   0.00005   0.00005   0.00035   0.00045   0.00035   0.00045   0.00032   0.00038   0.00035   0.00045   0.00032   0.00038
 -6.78392   0.06001   0.06145   0.00006   0.00005   0.00007   0.00007   0.00006   0.00006   0.00051   0.00069   0.00051   0.00069   0.00052   0.00062   0.00051   0.00069   0.00052   0.00062
 -6.64824   0.07680   0.07910   0.00008   0.00008   0.00010   0.00009   0.00009   0.00008   0.00082   0.00111   0.00082   0.00111   0.00066   0.00080   0.00082   0.00111   0.00066   0.00080
 -6.51256   0.08290   0.08357   0.00009   0.00009   0.00010   0.00009   0.00011   0.00009   0.00105   0.00140   0.00105   0.00140   0.00077   0.00093   0.00105   0.00140   0.00077   0.00093
 -6.37688   0.07068   0.06997   0.00008   0.00007   0.00008   0.00007   0.00009   0.00007   0.00096   0.00128   0.00096   0.00128   0.00084   0.00104   0.00096   0.00128   0.00084   0.00104
 -6.24121   0.05638   0.05904   0.00006   0.00005   0.00006   0.00005   0.00006   0.00005   0.00089   0.00133   0.00089   0.00133   0.00095   0.00124   0.00089   0.00133   0.00095   0.00124
 -6.10553   0.06253   0.06571   0.00007   0.00007   0.00007   0.00006   0.00007   0.00006   0.00118   0.00174   0.00118   0.00174   0.00128   0.00165   0.00118   0.00174   0.00128   0.00165
 -5.96985   0.07293   0.07652   0.00010   0.00011   0.00012   0.00011   0.00010   0.00010   0.00156   0.00234   0.00156   0.00234   0.00151   0.00190   0.00156   0.00234   0.00151   0.00190
 -5.83417   0.08355   0.09128   0.00016   0.00017   0.00020   0.00018   0.00016   0.00016   0.00214   0.00348   0.00214   0.00348   0.00164   0.00227   0.00214   0.00348   0.00164   0.00227
 -5.69849   0.09587   0.10720   0.00020   0.00019   0.00023   0.00020   0.00020   0.00019   0.00291   0.00503   0.00291   0.00503   0.00227   0.00334   0.00291   0.00503   0.00227   0.00334
 -5.56281   0.10685   0.10798   0.00022   0.00016   0.00021   0.00017   0.00020   0.00017   0.00378   0.00591   0.00378   0.00591   0.00321   0.00429   0.00378   0.00591   0.00321   0.00429
 -5.42714   0.09600   0.09016   0.00019   0.00010   0.00016   0.00011   0.00016   0.00011   0.00381   0.00599   0.00381   0.00599   0.00348   0.00474   0.00381   0.00599   0.00348   0.00474
 -5.29146   0.07765   0.08349   0.00013   0.00009   0.00011   0.00009   0.00011   0.00009   0.00364   0.00720   0.00364   0.00720   0.00375   0.00583   0.00364   0.00720   0.00375   0.00583
 -5.15578   0.07910   0.10303   0.00012   0.00017   0.00011   0.00017   0.00012   0.00017   0.00464   0.01231   0.00464   0.01231   0.00457   0.00795   0.00464   0.01231   0.00457   0.00795
 -5.02010   0.09982   0.14359   0.00023   0.00031   0.00023   0.00031   0.00024   0.00031   0.00678   0.02304   0.00678   0.02305   0.00622   0.01178   0.00678   0.02304   0.00622   0.01178
 -4.88442   0.13134   0.16306   0.00038   0.00038   0.00037   0.00038   0.00041   0.00038   0.01097   0.03314   0.01097   0.03314   0.00845   0.01974   0.01097   0.03314   0.00845   0.01974
 -4.74874   0.14586   0.15903   0.00040   0.00041   0.00040   0.00041   0.00042   0.00041   0.01578   0.03958   0.01578   0.03958   0.01106   0.03897   0.01578   0.03958   0.01106   0.03897
 -4.61307   0.13770   0.15741   0.00034   0.00055   0.00034   0.00055   0.00035   0.00055   0.01901   0.04507   0.01901   0.04507   0.01582   0.06775   0.01901   0.04507   0.01582   0.06775
 -4.47739   0.13125   0.15798   0.00033   0.00089   0.00033   0.00089   0.00033   0.00089   0.02374   0.05189   0.02374   0.05189   0.02671   0.08867   0.02374   0.05189   0.02671   0.08867
 -4.34171   0.14336   0.16350   0.00048   0.00149   0.00048   0.00149   0.00048   0.00149   0.03253   0.06381   0.03253   0.06381   0.04584   0.10162   0.03253   0.06381   0.04584   0.10162
 -4.20603   0.16724   0.15695   0.00093   0.00221   0.00093   0.00221   0.00093   0.00221   0.04103   0.08314   0.04103   0.08314   0.06719   0.11234   0.04103   0.08313   0.06719   0.11234
 -4.07035   0.18070   0.12710   0.00155   0.00323   0.00155   0.00323   0.00155   0.00323   0.04420   0.11723   0.04420   0.11723   0.08539   0.11484   0.04420   0.11722   0.08539   0.11485
 -3.93467   0.16639   0.10309   0.00199   0.00526   0.00199   0.00526   0.00199   0.00526   0.04484   0.15924   0.04484   0.15924   0.09662   0.12019   0.04484   0.15923   0.09662   0.12019
 -3.79899   0.13197   0.08527   0.00234   0.00817   0.00234   0.00817   0.00234   0.00817   0.04713   0.18705   0.04713   0.18706   0.09831   0.12866   0.04713   0.18705   0.09831   0.12866
 -3.66332   0.11319   0.06180   0.00336   0.01094   0.00336   0.01094   0.00336   0.01094   0.06214   0.19745   0.06214   0.19745   0.10198   0.12824   0.06214   0.19745   0.10198   0.12824
 -3.52764   0.11269   0.03719   0.00554   0.01283   0.00554   0.01283   0.00554   0.01283   0.09611   0.18994   0.09611   0.18994   0.11698   0.12288   0.09610   0.18994   0.11698   0.12288
 -3.39196   0.09117   0.02157   0.00821   0.01383   0.00821   0.01383   0.00821   0.01383   0.13127   0.17689   0.13127   0.17689   0.12400   0.12468   0.13126   0.17689   0.12400   0.12468