  COHP#       atomMU       atomNU     distance     translation      ICOHP (at) eF   for spin  1
      1          Ni1          Ni1      3.52000       1  -1  -1           -0.04512 
      2          Ni1          Ni1      2.48902       0   0  -1           -0.42495 
      3          Ni1          Ni1      2.48902       1   0  -1           -0.42579 
      4          Ni1          Ni1      3.52000      -1   1  -1           -0.04523 
      5          Ni1          Ni1      2.48902       0   1  -1           -0.42463 
      6          Ni1          Ni1      3.52000       1   1  -1           -0.04531 
      7          Ni1          Ni1      2.48902       0  -1   0           -0.42578 
      8          Ni1          Ni1      2.48902       1  -1   0           -0.42436 
      9          Ni1          Ni1      2.48902      -1   0   0           -0.42456 
     10          Ni1          Ni1      2.48902       1   0   0           -0.42456 
     11          Ni1          Ni1      2.48902      -1   1   0           -0.42436 
     12          Ni1          Ni1      2.48902       0   1   0           -0.42578 
     13          Ni1          Ni1      3.52000      -1  -1   1           -0.04531 
     14          Ni1          Ni1      2.48902       0  -1   1           -0.42463 
     15          Ni1          Ni1      3.52000       1  -1   1           -0.04523 
     16          Ni1          Ni1      2.48902      -1   0   1           -0.42579 
     17          Ni1          Ni1      2.48902       0   0   1           -0.42495 
     18          Ni1          Ni1      3.52000      -1   1   1           -0.04512 
  COHP#       atomMU       atomNU     distance     translation      ICOHP (at) eF   for spin  2
      1          Ni1          Ni1      3.52000       1  -1  -1           -0.03693 
      2          Ni1          Ni1      2.48902       0   0  -1           -0.33539 
      3          Ni1          Ni1      2.48902       1   0  -1           -0.33459 
      4          Ni1          Ni1      3.52000      -1   1  -1           -0.03717 
      5          Ni1          Ni1      2.48902       0   1  -1           -0.33419 
      6          Ni1          Ni1      3.52000       1   1  -1           -0.03749 
      7          Ni1          Ni1      2.48902       0  -1   0           -0.33458 
      8          Ni1          Ni1      2.48902       1  -1   0           -0.33491 
      9          Ni1          Ni1      2.48902      -1   0   0           -0.33431 
     10          Ni1          Ni1      2.48902       1   0   0           -0.33431 
     11          Ni1          Ni1      2.48902      -1   1   0           -0.33491 
     12          Ni1          Ni1      2.48902       0   1   0           -0.33458 
     13          Ni1          Ni1      3.52000      -1  -1   1           -0.03749 
     14          Ni1          Ni1      2.48902       0  -1   1           -0.33419 
     15          Ni1          Ni1      3.52000       1  -1   1           -0.03717 
     16          Ni1          Ni1      2.48902      -1   0   1           -0.33459 
     17          Ni1          Ni1      2.48902       0   0   1           -0.33539 
     18          Ni1          Ni1      3.52000      -1   1   1           -0.03693 
