================================================================================
| EXCITING CARBON started                                                      =
| version hash id:                                                             =
|                                                                              =
| Date (DD-MM-YYYY) : 22-12-2016                                               =
| Time (hh:mm:ss)   : 13:16:45                                                 =
|                                                                              =
| All units are atomic (Hartree, Bohr, etc.)                                   =
================================================================================

********************************************************************************
| Structural optimisation starting from atomic densities                       *
********************************************************************************

++++++++++++++++++++++++++++++++++++++++++++++++++++++++++++++++++++++++++++++++
| Starting initialization                                                      +
++++++++++++++++++++++++++++++++++++++++++++++++++++++++++++++++++++++++++++++++

 Lattice vectors (cartesian) :
      3.3916662459      3.3916662459      0.0000000000
      3.3916662459      0.0000000000      3.3582500000
      0.0000000000      3.3916662459      3.3582500000

 Reciprocal lattice vectors (cartesian) :
      0.9262682192      0.9262682192     -0.9354850454
      0.9262682192     -0.9262682192      0.9354850454
     -0.9262682192      0.9262682192      0.9354850454

 Unit cell volume                           :      77.2625855879
 Brillouin zone volume                      :       3.2104829466

 Species :    1 (C)
     parameters loaded from                 :    C.xml
     name                                   :    carbon
     nuclear charge                         :      -6.00000000
     electronic charge                      :       6.00000000
     atomic mass                            :   21894.16673000
     muffin-tin radius                      :       1.30000000
     # of radial points in muffin-tin       :     250

     atomic positions (lattice) :
       1 :   0.00000000  0.00000000  0.00000000
       2 :   0.25000000  0.25000000  0.25000000

 Total number of atoms per unit cell        :       2

 Spin treatment                             :    spin-unpolarised

 Number of Bravais lattice symmetries       :      16
 Number of crystal symmetries               :      16

 k-point grid                               :       6    6    6
 Total number of k-points                   :      30
 k-point set is reduced with crystal symmetries

 R^MT_min * |G+k|_max (rgkmax)              :       7.00000000
 Species with R^MT_min                      :       1 (C)
 Maximum |G+k| for APW functions            :       5.38461538
 Maximum |G| for potential and density      :      18.00000000

 G-vector grid sizes                        :      30    30    30
 Total number of G-vectors                  :    7663

 Maximum angular momentum used for
     APW functions                          :       8
     computing H and O matrix elements      :       8
     potential and density                  :       8
     inner part of muffin-tin               :       2

 Total nuclear charge                       :     -12.00000000
 Total electronic charge                    :      12.00000000
 Total core charge                          :       4.00000000
 Total valence charge                       :       8.00000000

 Number of empty states                     :       5
 Total number of valence states             :      10

 Maximum Hamiltonian size                   :     220
 Maximum number of plane-waves              :     212
 Total number of local-orbitals             :       8

 Exchange-correlation type                  :      22
     PBEsol, Phys. Rev. Lett. 100, 136406 (2008)
     Generalised gradient approximation (GGA)

 Smearing scheme                            :    Gaussian
 Smearing width                             :       0.00010000

 Using multisecant Broyden potential mixing

++++++++++++++++++++++++++++++++++++++++++++++++++++++++++++++++++++++++++++++++
| Ending initialization                                                        +
++++++++++++++++++++++++++++++++++++++++++++++++++++++++++++++++++++++++++++++++

********************************************************************************
| Groundstate module started                                                   *
********************************************************************************
 Output level for this task is set to normal

++++++++++++++++++++++++++++++++++++++++++++++++++++++++++++++++++++++++++++++++
| Self-consistent loop started                                                 +
++++++++++++++++++++++++++++++++++++++++++++++++++++++++++++++++++++++++++++++++
 Density and potential initialised from atomic data


++++++++++++++++++++++++++++++++++++++++++++++++++++++++++++++++++++++++++++++++
| SCF iteration number :    1                                                  +
++++++++++++++++++++++++++++++++++++++++++++++++++++++++++++++++++++++++++++++++
 Total energy                               :       -76.80714997
 _______________________________________________________________
 Fermi energy                               :         0.47075100
 Kinetic energy                             :        74.98881875
 Coulomb energy                             :      -141.22455892
 Exchange energy                            :       -10.07329608
 Correlation energy                         :        -0.49811372

 DOS at Fermi energy (states/Ha/cell)       :         0.00000000

 Electron charges :
     core                                   :         4.00000000
     core leakage                           :         0.00056715
     valence                                :         8.00000000
     interstitial                           :         4.06106408
     charge in muffin-tin spheres :
                  atom     1     C          :         3.96946796
                  atom     2     C          :         3.96946796
     total charge in muffin-tins            :         7.93893592
     total charge                           :        12.00000000

 Estimated fundamental gap                  :         0.16581404
        valence-band maximum at    1      0.0000  0.0000  0.0000
     conduction-band minimum at   26      0.0000  0.3333  0.3333

 Wall time (seconds)                        :         6.44

++++++++++++++++++++++++++++++++++++++++++++++++++++++++++++++++++++++++++++++++
| SCF iteration number :    2                                                  +
++++++++++++++++++++++++++++++++++++++++++++++++++++++++++++++++++++++++++++++++
 Total energy                               :       -76.49500492
 _______________________________________________________________
 Fermi energy                               :         0.48225749
 Kinetic energy                             :        75.16125468
 Coulomb energy                             :      -141.10124436
 Exchange energy                            :       -10.05579008
 Correlation energy                         :        -0.49922515

 DOS at Fermi energy (states/Ha/cell)       :         0.00000000

 Electron charges :
     core                                   :         4.00000000
     core leakage                           :         0.00057094
     valence                                :         8.00000000
     interstitial                           :         4.09861027
     charge in muffin-tin spheres :
                  atom     1     C          :         3.95069487
                  atom     2     C          :         3.95069487
     total charge in muffin-tins            :         7.90138973
     total charge                           :        12.00000000

 Estimated fundamental gap                  :         0.15744776
        valence-band maximum at    1      0.0000  0.0000  0.0000
     conduction-band minimum at   26      0.0000  0.3333  0.3333

 Wall time (seconds)                        :        12.11

 RMS change in effective potential (target) :   2.35297      ( 0.100000E-05)
 Absolute change in total energy   (target) :  0.312145      ( 0.100000E-05)
 Charge distance                   (target) :  0.716649E-02  ( 0.100000E-04)
 Abs. change in max-nonIBS-force   (target) :   0.00000      ( 0.500000E-04)

++++++++++++++++++++++++++++++++++++++++++++++++++++++++++++++++++++++++++++++++
| SCF iteration number :    3                                                  +
++++++++++++++++++++++++++++++++++++++++++++++++++++++++++++++++++++++++++++++++
 Total energy                               :       -76.26690898
 _______________________________________________________________
 Fermi energy                               :         0.49075830
 Kinetic energy                             :        75.28734956
 Coulomb energy                             :      -141.01136937
 Exchange energy                            :       -10.04281323
 Correlation energy                         :        -0.50007593

 DOS at Fermi energy (states/Ha/cell)       :         0.00000000

 Electron charges :
     core                                   :         4.00000000
     core leakage                           :         0.00057343
     valence                                :         8.00000000
     interstitial                           :         4.12710391
     charge in muffin-tin spheres :
                  atom     1     C          :         3.93644804
                  atom     2     C          :         3.93644804
     total charge in muffin-tins            :         7.87289609
     total charge                           :        12.00000000

 Estimated fundamental gap                  :         0.15102213
        valence-band maximum at    1      0.0000  0.0000  0.0000
     conduction-band minimum at   26      0.0000  0.3333  0.3333

 Wall time (seconds)                        :        17.76

 RMS change in effective potential (target) :   1.72380      ( 0.100000E-05)
 Absolute change in total energy   (target) :  0.228096      ( 0.100000E-05)
 Charge distance                   (target) :  0.547311E-02  ( 0.100000E-04)
 Abs. change in max-nonIBS-force   (target) :   0.00000      ( 0.500000E-04)

++++++++++++++++++++++++++++++++++++++++++++++++++++++++++++++++++++++++++++++++
| SCF iteration number :    4                                                  +
++++++++++++++++++++++++++++++++++++++++++++++++++++++++++++++++++++++++++++++++
 Total energy                               :       -76.01996198
 _______________________________________________________________
 Fermi energy                               :         0.50198119
 Kinetic energy                             :        75.43488407
 Coulomb energy                             :      -140.92706462
 Exchange energy                            :       -10.02643467
 Correlation energy                         :        -0.50134677

 DOS at Fermi energy (states/Ha/cell)       :         0.00000000

 Electron charges :
     core                                   :         4.00000000
     core leakage                           :         0.00057190
     valence                                :         8.00000000
     interstitial                           :         4.16837366
     charge in muffin-tin spheres :
                  atom     1     C          :         3.91581317
                  atom     2     C          :         3.91581317
     total charge in muffin-tins            :         7.83162634
     total charge                           :        12.00000000

 Estimated fundamental gap                  :         0.14090652
        valence-band maximum at    1      0.0000  0.0000  0.0000
     conduction-band minimum at   26      0.0000  0.3333  0.3333

 Wall time (seconds)                        :        23.35

 RMS change in effective potential (target) :  0.411848E-01  ( 0.100000E-05)
 Absolute change in total energy   (target) :  0.246947      ( 0.100000E-05)
 Charge distance                   (target) :  0.827614E-02  ( 0.100000E-04)
 Abs. change in max-nonIBS-force   (target) :   0.00000      ( 0.500000E-04)

++++++++++++++++++++++++++++++++++++++++++++++++++++++++++++++++++++++++++++++++
| SCF iteration number :    5                                                  +
++++++++++++++++++++++++++++++++++++++++++++++++++++++++++++++++++++++++++++++++
 Total energy                               :       -75.83565615
 _______________________________________________________________
 Fermi energy                               :         0.50747728
 Kinetic energy                             :        75.52587702
 Coulomb energy                             :      -140.84261624
 Exchange energy                            :       -10.01704672
 Correlation energy                         :        -0.50187021

 DOS at Fermi energy (states/Ha/cell)       :         0.00000000

 Electron charges :
     core                                   :         4.00000000
     core leakage                           :         0.00057636
     valence                                :         8.00000000
     interstitial                           :         4.18639181
     charge in muffin-tin spheres :
                  atom     1     C          :         3.90680410
                  atom     2     C          :         3.90680410
     total charge in muffin-tins            :         7.81360819
     total charge                           :        12.00000000

 Estimated fundamental gap                  :         0.13730887
        valence-band maximum at    1      0.0000  0.0000  0.0000
     conduction-band minimum at   26      0.0000  0.3333  0.3333

 Wall time (seconds)                        :        28.95

 RMS change in effective potential (target) :  0.213694E-01  ( 0.100000E-05)
 Absolute change in total energy   (target) :  0.184306      ( 0.100000E-05)
 Charge distance                   (target) :  0.330845E-02  ( 0.100000E-04)
 Abs. change in max-nonIBS-force   (target) :   0.00000      ( 0.500000E-04)

++++++++++++++++++++++++++++++++++++++++++++++++++++++++++++++++++++++++++++++++
| SCF iteration number :    6                                                  +
++++++++++++++++++++++++++++++++++++++++++++++++++++++++++++++++++++++++++++++++
 Total energy                               :       -75.89206676
 _______________________________________________________________
 Fermi energy                               :         0.50583177
 Kinetic energy                             :        75.49854961
 Coulomb energy                             :      -140.86893437
 Exchange energy                            :       -10.01997594
 Correlation energy                         :        -0.50170605

 DOS at Fermi energy (states/Ha/cell)       :         0.00000000

 Electron charges :
     core                                   :         4.00000000
     core leakage                           :         0.00057498
     valence                                :         8.00000000
     interstitial                           :         4.18077814
     charge in muffin-tin spheres :
                  atom     1     C          :         3.90961093
                  atom     2     C          :         3.90961093
     total charge in muffin-tins            :         7.81922186
     total charge                           :        12.00000000

 Estimated fundamental gap                  :         0.13844333
        valence-band maximum at    1      0.0000  0.0000  0.0000
     conduction-band minimum at   26      0.0000  0.3333  0.3333

 Wall time (seconds)                        :        34.56

 RMS change in effective potential (target) :  0.327169E-03  ( 0.100000E-05)
 Absolute change in total energy   (target) :  0.564106E-01  ( 0.100000E-05)
 Charge distance                   (target) :  0.103402E-02  ( 0.100000E-04)
 Abs. change in max-nonIBS-force   (target) :   0.00000      ( 0.500000E-04)

++++++++++++++++++++++++++++++++++++++++++++++++++++++++++++++++++++++++++++++++
| SCF iteration number :    7                                                  +
++++++++++++++++++++++++++++++++++++++++++++++++++++++++++++++++++++++++++++++++
 Total energy                               :       -75.89350090
 _______________________________________________________________
 Fermi energy                               :         0.50578903
 Kinetic energy                             :        75.49781516
 Coulomb energy                             :      -140.86956977
 Exchange energy                            :       -10.02004387
 Correlation energy                         :        -0.50170243

 DOS at Fermi energy (states/Ha/cell)       :         0.00000000

 Electron charges :
     core                                   :         4.00000000
     core leakage                           :         0.00057495
     valence                                :         8.00000000
     interstitial                           :         4.18064926
     charge in muffin-tin spheres :
                  atom     1     C          :         3.90967537
                  atom     2     C          :         3.90967537
     total charge in muffin-tins            :         7.81935074
     total charge                           :        12.00000000

 Estimated fundamental gap                  :         0.13846729
        valence-band maximum at    1      0.0000  0.0000  0.0000
     conduction-band minimum at   26      0.0000  0.3333  0.3333

 Wall time (seconds)                        :        40.17

 RMS change in effective potential (target) :  0.594450E-04  ( 0.100000E-05)
 Absolute change in total energy   (target) :  0.143414E-02  ( 0.100000E-05)
 Charge distance                   (target) :  0.231090E-04  ( 0.100000E-04)
 Abs. change in max-nonIBS-force   (target) :   0.00000      ( 0.500000E-04)

++++++++++++++++++++++++++++++++++++++++++++++++++++++++++++++++++++++++++++++++
| SCF iteration number :    8                                                  +
++++++++++++++++++++++++++++++++++++++++++++++++++++++++++++++++++++++++++++++++
 Total energy                               :       -75.89338167
 _______________________________________________________________
 Fermi energy                               :         0.50579209
 Kinetic energy                             :        75.49787079
 Coulomb energy                             :      -140.86951174
 Exchange energy                            :       -10.02003799
 Correlation energy                         :        -0.50170272

 DOS at Fermi energy (states/Ha/cell)       :         0.00000000

 Electron charges :
     core                                   :         4.00000000
     core leakage                           :         0.00057495
     valence                                :         8.00000000
     interstitial                           :         4.18065971
     charge in muffin-tin spheres :
                  atom     1     C          :         3.90967014
                  atom     2     C          :         3.90967014
     total charge in muffin-tins            :         7.81934029
     total charge                           :        12.00000000

 Estimated fundamental gap                  :         0.13846540
        valence-band maximum at    1      0.0000  0.0000  0.0000
     conduction-band minimum at   26      0.0000  0.3333  0.3333

 Wall time (seconds)                        :        45.78

 RMS change in effective potential (target) :  0.388335E-05  ( 0.100000E-05)
 Absolute change in total energy   (target) :  0.119239E-03  ( 0.100000E-05)
 Charge distance                   (target) :  0.185402E-05  ( 0.100000E-04)
 Abs. change in max-nonIBS-force   (target) :   0.00000      ( 0.500000E-04)

++++++++++++++++++++++++++++++++++++++++++++++++++++++++++++++++++++++++++++++++
| SCF iteration number :    9                                                  +
++++++++++++++++++++++++++++++++++++++++++++++++++++++++++++++++++++++++++++++++
 Total energy                               :       -75.89337901
 _______________________________________________________________
 Fermi energy                               :         0.50579224
 Kinetic energy                             :        75.49787289
 Coulomb energy                             :      -140.86951130
 Exchange energy                            :       -10.02003786
 Correlation energy                         :        -0.50170274

 DOS at Fermi energy (states/Ha/cell)       :         0.00000000

 Electron charges :
     core                                   :         4.00000000
     core leakage                           :         0.00057495
     valence                                :         8.00000000
     interstitial                           :         4.18066011
     charge in muffin-tin spheres :
                  atom     1     C          :         3.90966994
                  atom     2     C          :         3.90966994
     total charge in muffin-tins            :         7.81933989
     total charge                           :        12.00000000

 Estimated fundamental gap                  :         0.13846530
        valence-band maximum at    1      0.0000  0.0000  0.0000
     conduction-band minimum at   26      0.0000  0.3333  0.3333

 Wall time (seconds)                        :        51.39

 RMS change in effective potential (target) :  0.467205E-06  ( 0.100000E-05)
 Absolute change in total energy   (target) :  0.265539E-05  ( 0.100000E-05)
 Charge distance                   (target) :  0.814715E-07  ( 0.100000E-04)
 Abs. change in max-nonIBS-force   (target) :   0.00000      ( 0.500000E-04)

++++++++++++++++++++++++++++++++++++++++++++++++++++++++++++++++++++++++++++++++
| SCF iteration number :   10                                                  +
++++++++++++++++++++++++++++++++++++++++++++++++++++++++++++++++++++++++++++++++
 Total energy                               :       -75.89337986
 _______________________________________________________________
 Fermi energy                               :         0.50579220
 Kinetic energy                             :        75.49787237
 Coulomb energy                             :      -140.86951159
 Exchange energy                            :       -10.02003791
 Correlation energy                         :        -0.50170273

 DOS at Fermi energy (states/Ha/cell)       :         0.00000000

 Electron charges :
     core                                   :         4.00000000
     core leakage                           :         0.00057495
     valence                                :         8.00000000
     interstitial                           :         4.18066000
     charge in muffin-tin spheres :
                  atom     1     C          :         3.90967000
                  atom     2     C          :         3.90967000
     total charge in muffin-tins            :         7.81934000
     total charge                           :        12.00000000

 Estimated fundamental gap                  :         0.13846532
        valence-band maximum at    1      0.0000  0.0000  0.0000
     conduction-band minimum at   26      0.0000  0.3333  0.3333

 Wall time (seconds)                        :        57.00

 RMS change in effective potential (target) :  0.219290E-07  ( 0.100000E-05)
 Absolute change in total energy   (target) :  0.851008E-06  ( 0.100000E-05)
 Charge distance                   (target) :  0.211833E-07  ( 0.100000E-04)
 Abs. change in max-nonIBS-force   (target) :   0.00000      ( 0.500000E-04)

++++++++++++++++++++++++++++++++++++++++++++++++++++++++++++++++++++++++++++++++
| SCF iteration number :   11                                                  +
++++++++++++++++++++++++++++++++++++++++++++++++++++++++++++++++++++++++++++++++
 Total energy                               :       -75.89337979
 _______________________________________________________________
 Fermi energy                               :         0.50579221
 Kinetic energy                             :        75.49787241
 Coulomb energy                             :      -140.86951156
 Exchange energy                            :       -10.02003790
 Correlation energy                         :        -0.50170273

 DOS at Fermi energy (states/Ha/cell)       :         0.00000000

 Electron charges :
     core                                   :         4.00000000
     core leakage                           :         0.00057495
     valence                                :         8.00000000
     interstitial                           :         4.18066001
     charge in muffin-tin spheres :
                  atom     1     C          :         3.90966999
                  atom     2     C          :         3.90966999
     total charge in muffin-tins            :         7.81933999
     total charge                           :        12.00000000

 Estimated fundamental gap                  :         0.13846532
        valence-band maximum at    1      0.0000  0.0000  0.0000
     conduction-band minimum at   26      0.0000  0.3333  0.3333

 Wall time (seconds)                        :        62.62

 RMS change in effective potential (target) :  0.194852E-07  ( 0.100000E-05)
 Absolute change in total energy   (target) :  0.743738E-07  ( 0.100000E-05)
 Charge distance                   (target) :  0.174434E-08  ( 0.100000E-04)
 Abs. change in max-nonIBS-force   (target) :   0.00000      ( 0.500000E-04)
                                                                                
++++++++++++++++++++++++++++++++++++++++++++++++++++++++++++++++++++++++++++++++
| Convergency criteria checked for the last 2 iterations                       +
| Convergence targets achieved. Performing final SCF iteration                 +
++++++++++++++++++++++++++++++++++++++++++++++++++++++++++++++++++++++++++++++++
 Total energy                               :       -75.89337978
 _______________________________________________________________
 Fermi energy                               :         0.50579221
 Kinetic energy                             :        75.49787241
 Coulomb energy                             :      -140.86951156
 Exchange energy                            :       -10.02003790
 Correlation energy                         :        -0.50170273

 DOS at Fermi energy (states/Ha/cell)       :         0.00000000

 Electron charges :
     core                                   :         4.00000000
     core leakage                           :         0.00057495
     valence                                :         8.00000000
     interstitial                           :         4.18066001
     charge in muffin-tin spheres :
                  atom     1     C          :         3.90966999
                  atom     2     C          :         3.90966999
     total charge in muffin-tins            :         7.81933999
     total charge                           :        12.00000000

 Estimated fundamental gap                  :         0.13846532
        valence-band maximum at    1      0.0000  0.0000  0.0000
     conduction-band minimum at   26      0.0000  0.3333  0.3333

++++++++++++++++++++++++++++++++++++++++++++++++++++++++++++++++++++++++++++++++
| Self-consistent loop stopped                                                 +
++++++++++++++++++++++++++++++++++++++++++++++++++++++++++++++++++++++++++++++++
 STATE.OUT is written

--------------------------------------------------------------------------------
| Writing atomic positions and forces                                          -
--------------------------------------------------------------------------------

 Atomic positions (lattice) :
 atom     1   C  :     0.00000000    0.00000000    0.00000000
 atom     2   C  :     0.25000000    0.25000000    0.25000000

 Total atomic forces including IBS (cartesian) :
 atom     1   C  :     0.00000000    0.00000000    0.00000000
 atom     2   C  :    -0.00000000    0.00000000    0.00000000

 Atomic force components including IBS (cartesian) :
 atom     1   C  :    -0.00000000   -0.00000000    0.00000000   HF force
                 :    -0.00000000   -0.00000000    0.00000000   core correction
                 :     0.00000000    0.00000000    0.00000000   IBS correction
 atom     2   C  :     0.00000000    0.00000000   -0.00000000   HF force
                 :     0.00000000    0.00000000   -0.00000000   core correction
                 :     0.00000000   -0.00000000    0.00000000   IBS correction

********************************************************************************
| Groundstate module stopped                                                   *
********************************************************************************

********************************************************************************
| Structure-optimization module started                                        *
********************************************************************************
 Output level for this task is set to normal

 Maximum displacement tau_BFGS   is         :         0.3000
 Maximum displacement tau_newton is         :         0.2000
 Maximum force target reached already at the initial configuration

********************************************************************************
| Structure-optimization module stopped                                        *
********************************************************************************

 Total time spent (seconds)                 :        69.42

================================================================================
| EXCITING CARBON stopped                                                      =
================================================================================
