================================================================================
| EXCITING BORON started                                                       =
| version hash id:                                                             =
| MPI version using     16 processor(s)                                        =
|                                                                              =
| Date (DD-MM-YYYY) : 13-08-2015                                               =
| Time (hh:mm:ss)   : 01:57:54                                                 =
|                                                                              =
| All units are atomic (Hartree, Bohr, etc.)                                   =
================================================================================
 
********************************************************************************
| Structural optimisation starting from atomic densities                       *
********************************************************************************
 
++++++++++++++++++++++++++++++++++++++++++++++++++++++++++++++++++++++++++++++++
| Starting initialization                                                      +
++++++++++++++++++++++++++++++++++++++++++++++++++++++++++++++++++++++++++++++++
 
 Lattice vectors (cartesian) :
      2.3270000000      4.3642964885      0.3489481624
     -2.3270000000      4.3642964885      0.3489481624
      0.0000000000      0.5693409817      6.5514096469
 
 Reciprocal lattice vectors (cartesian) :
      1.3500613036      0.7248761443     -0.0629943352
     -1.3500613036      0.7248761443     -0.0629943352
      0.0000000000     -0.0772182514      0.9657690731
 
 Unit cell volume                           :     132.1439243612
 Brillouin zone volume                      :       1.8771215903
 
 Species :    1 (C)
     parameters loaded from                 :    C.xml
     name                                   :    carbon
     nuclear charge                         :      -6.00000000
     electronic charge                      :       6.00000000
     atomic mass                            :   21894.16673000
     muffin-tin radius                      :       1.20000000
     # of radial points in muffin-tin       :     250
 
     atomic positions (lattice) :
       1 :   0.00000000  0.00000000  0.00000000
       2 :   0.33333333  0.33333333  0.00000000
 
 Total number of atoms per unit cell        :       2
 
 Spin treatment                             :    spin-unpolarised
 
 Number of Bravais lattice symmetries       :       4
 Number of crystal symmetries               :       4
 
 k-point grid                               :      34   34   24
 Total number of k-points                   :    7159
 k-point set is reduced with crystal symmetries
 
 R^MT_min * |G+k|_max (rgkmax)              :       8.00000000
 Species with R^MT_min                      :       1 (C)
 Maximum |G+k| for APW functions            :       6.66666667
 Maximum |G| for potential and density      :      20.00000000
 
 G-vector grid sizes                        :      32    32    45
 Total number of G-vectors                  :   17861
 
 Maximum angular momentum used for
     APW functions                          :       8
     computing H and O matrix elements      :       8
     potential and density                  :       8
     inner part of muffin-tin               :       2
 
 Total nuclear charge                       :     -12.00000000
 Total electronic charge                    :      12.00000000
 Total core charge                          :       4.00000000
 Total valence charge                       :       8.00000000
 
 Number of empty states                     :       5
 Total number of valence states             :      10
 
 Maximum Hamiltonian size                   :     687
 Maximum number of plane-waves              :     679
 Total number of local-orbitals             :       8
 
 Exchange-correlation type                  :      20
     Perdew-Burke-Ernzerhof, Phys. Rev. Lett. 77, 3865 (1996)
     Generalised gradient approximation (GGA)
 
 Smearing scheme                            :    Gaussian
 Smearing width                             :       0.01000000
 
 Using multisecant Broyden potential mixing
 
++++++++++++++++++++++++++++++++++++++++++++++++++++++++++++++++++++++++++++++++
| Ending initialization                                                        +
++++++++++++++++++++++++++++++++++++++++++++++++++++++++++++++++++++++++++++++++
 
********************************************************************************
| Groundstate module started                                                   *
********************************************************************************
 Output level for this task is set to normal
 
++++++++++++++++++++++++++++++++++++++++++++++++++++++++++++++++++++++++++++++++
| Self-consistent loop started                                                 +
++++++++++++++++++++++++++++++++++++++++++++++++++++++++++++++++++++++++++++++++
 Density and potential initialised from atomic data
 
 
++++++++++++++++++++++++++++++++++++++++++++++++++++++++++++++++++++++++++++++++
| SCF iteration number :    1                                                  +
++++++++++++++++++++++++++++++++++++++++++++++++++++++++++++++++++++++++++++++++
 Total energy                               :       -77.87939522
 _______________________________________________________________
 Fermi energy                               :         0.14895019
 Kinetic energy                             :        74.46730556
 Coulomb energy                             :      -141.53528889
 Exchange energy                            :       -10.39836936
 Correlation energy                         :        -0.41304253
 
 DOS at Fermi energy (states/Ha/cell)       :         1.21448993
 
 Electron charges :
     core                                   :         4.00000000
     core leakage                           :         0.00127502
     valence                                :         8.00000000
     interstitial                           :         4.73261751
     charge in muffin-tin spheres :
                  atom     1     C          :         3.63369125
                  atom     2     C          :         3.63369125
     total charge in muffin-tins            :         7.26738249
     total charge                           :        12.00000000
 
 Wall time (seconds)                        :       204.66
 
++++++++++++++++++++++++++++++++++++++++++++++++++++++++++++++++++++++++++++++++
| SCF iteration number :    2                                                  +
++++++++++++++++++++++++++++++++++++++++++++++++++++++++++++++++++++++++++++++++
 Total energy                               :       -77.25581668
 _______________________________________________________________
 Fermi energy                               :         0.16625198
 Kinetic energy                             :        74.88146243
 Coulomb energy                             :      -141.35667463
 Exchange energy                            :       -10.36672866
 Correlation energy                         :        -0.41387581
 
 DOS at Fermi energy (states/Ha/cell)       :         1.27590695
 
 Electron charges :
     core                                   :         4.00000000
     core leakage                           :         0.00128420
     valence                                :         8.00000000
     interstitial                           :         4.78516486
     charge in muffin-tin spheres :
                  atom     1     C          :         3.60741757
                  atom     2     C          :         3.60741757
     total charge in muffin-tins            :         7.21483514
     total charge                           :        12.00000000
 
 Wall time (seconds)                        :       405.02
 
 RMS change in effective potential (target) :   1.54025      ( 0.100000E-05)
 Absolute change in total energy   (target) :  0.623579      ( 0.100000E-06)
 Charge distance                   (target) :  0.110890E-01  ( 0.100000E-04)
 Abs. change in max-nonIBS-force   (target) :  0.886266E-01  ( 0.250000E-05)
 
++++++++++++++++++++++++++++++++++++++++++++++++++++++++++++++++++++++++++++++++
| SCF iteration number :    3                                                  +
++++++++++++++++++++++++++++++++++++++++++++++++++++++++++++++++++++++++++++++++
 Total energy                               :       -76.81703496
 _______________________________________________________________
 Fermi energy                               :         0.17807244
 Kinetic energy                             :        75.17092471
 Coulomb energy                             :      -141.22941373
 Exchange energy                            :       -10.34402892
 Correlation energy                         :        -0.41451702
 
 DOS at Fermi energy (states/Ha/cell)       :         1.32411139
 
 Electron charges :
     core                                   :         4.00000000
     core leakage                           :         0.00128993
     valence                                :         8.00000000
     interstitial                           :         4.82310748
     charge in muffin-tin spheres :
                  atom     1     C          :         3.58844626
                  atom     2     C          :         3.58844626
     total charge in muffin-tins            :         7.17689252
     total charge                           :        12.00000000
 
 Wall time (seconds)                        :       605.71
 
 RMS change in effective potential (target) :   1.13428      ( 0.100000E-05)
 Absolute change in total energy   (target) :  0.438782      ( 0.100000E-06)
 Charge distance                   (target) :  0.809988E-02  ( 0.100000E-04)
 Abs. change in max-nonIBS-force   (target) :  0.331422E-01  ( 0.250000E-05)
 
++++++++++++++++++++++++++++++++++++++++++++++++++++++++++++++++++++++++++++++++
| SCF iteration number :    4                                                  +
++++++++++++++++++++++++++++++++++++++++++++++++++++++++++++++++++++++++++++++++
 Total energy                               :       -76.63597273
 _______________________________________________________________
 Fermi energy                               :         0.18266341
 Kinetic energy                             :        75.30503803
 Coulomb energy                             :      -141.19394628
 Exchange energy                            :       -10.33215862
 Correlation energy                         :        -0.41490587
 
 DOS at Fermi energy (states/Ha/cell)       :         1.35657185
 
 Electron charges :
     core                                   :         4.00000000
     core leakage                           :         0.00128192
     valence                                :         8.00000000
     interstitial                           :         4.84660401
     charge in muffin-tin spheres :
                  atom     1     C          :         3.57669799
                  atom     2     C          :         3.57669799
     total charge in muffin-tins            :         7.15339599
     total charge                           :        12.00000000
 
 Wall time (seconds)                        :       807.51
 
 RMS change in effective potential (target) :  0.522787E-01  ( 0.100000E-05)
 Absolute change in total energy   (target) :  0.181062      ( 0.100000E-06)
 Charge distance                   (target) :  0.559765E-02  ( 0.100000E-04)
 Abs. change in max-nonIBS-force   (target) :  0.399896E-01  ( 0.250000E-05)
 
++++++++++++++++++++++++++++++++++++++++++++++++++++++++++++++++++++++++++++++++
| SCF iteration number :    5                                                  +
++++++++++++++++++++++++++++++++++++++++++++++++++++++++++++++++++++++++++++++++
 Total energy                               :       -75.95687790
 _______________________________________________________________
 Fermi energy                               :         0.20018454
 Kinetic energy                             :        75.73155077
 Coulomb energy                             :      -140.97447278
 Exchange energy                            :       -10.29802147
 Correlation energy                         :        -0.41593442
 
 DOS at Fermi energy (states/Ha/cell)       :         1.43286241
 
 Electron charges :
     core                                   :         4.00000000
     core leakage                           :         0.00129841
     valence                                :         8.00000000
     interstitial                           :         4.90121471
     charge in muffin-tin spheres :
                  atom     1     C          :         3.54939264
                  atom     2     C          :         3.54939264
     total charge in muffin-tins            :         7.09878529
     total charge                           :        12.00000000
 
 Wall time (seconds)                        :      1007.58
 
 RMS change in effective potential (target) :  0.291276E-01  ( 0.100000E-05)
 Absolute change in total energy   (target) :  0.679095      ( 0.100000E-06)
 Charge distance                   (target) :  0.114395E-01  ( 0.100000E-04)
 Abs. change in max-nonIBS-force   (target) :  0.259255E-02  ( 0.250000E-05)
 
++++++++++++++++++++++++++++++++++++++++++++++++++++++++++++++++++++++++++++++++
| SCF iteration number :    6                                                  +
++++++++++++++++++++++++++++++++++++++++++++++++++++++++++++++++++++++++++++++++
 Total energy                               :       -76.19131016
 _______________________________________________________________
 Fermi energy                               :         0.19425028
 Kinetic energy                             :        75.58497316
 Coulomb energy                             :      -141.05079671
 Exchange energy                            :       -10.30991578
 Correlation energy                         :        -0.41557082
 
 DOS at Fermi energy (states/Ha/cell)       :         1.40512099
 
 Electron charges :
     core                                   :         4.00000000
     core leakage                           :         0.00129281
     valence                                :         8.00000000
     interstitial                           :         4.88216902
     charge in muffin-tin spheres :
                  atom     1     C          :         3.55891549
                  atom     2     C          :         3.55891549
     total charge in muffin-tins            :         7.11783098
     total charge                           :        12.00000000
 
 Wall time (seconds)                        :      1208.06
 
 RMS change in effective potential (target) :  0.454551E-03  ( 0.100000E-05)
 Absolute change in total energy   (target) :  0.234432      ( 0.100000E-06)
 Charge distance                   (target) :  0.401600E-02  ( 0.100000E-04)
 Abs. change in max-nonIBS-force   (target) :  0.124737E-01  ( 0.250000E-05)
 
++++++++++++++++++++++++++++++++++++++++++++++++++++++++++++++++++++++++++++++++
| SCF iteration number :    7                                                  +
++++++++++++++++++++++++++++++++++++++++++++++++++++++++++++++++++++++++++++++++
 Total energy                               :       -76.19383176
 _______________________________________________________________
 Fermi energy                               :         0.19418082
 Kinetic energy                             :        75.58352288
 Coulomb energy                             :      -141.05175256
 Exchange energy                            :       -10.31003573
 Correlation energy                         :        -0.41556636
 
 DOS at Fermi energy (states/Ha/cell)       :         1.40497681
 
 Electron charges :
     core                                   :         4.00000000
     core leakage                           :         0.00129270
     valence                                :         8.00000000
     interstitial                           :         4.88198295
     charge in muffin-tin spheres :
                  atom     1     C          :         3.55900853
                  atom     2     C          :         3.55900853
     total charge in muffin-tins            :         7.11801705
     total charge                           :        12.00000000
 
 Wall time (seconds)                        :      1408.30
 
 RMS change in effective potential (target) :  0.107413E-03  ( 0.100000E-05)
 Absolute change in total energy   (target) :  0.252160E-02  ( 0.100000E-06)
 Charge distance                   (target) :  0.373056E-04  ( 0.100000E-04)
 Abs. change in max-nonIBS-force   (target) :  0.169221E-03  ( 0.250000E-05)
 
++++++++++++++++++++++++++++++++++++++++++++++++++++++++++++++++++++++++++++++++
| SCF iteration number :    8                                                  +
++++++++++++++++++++++++++++++++++++++++++++++++++++++++++++++++++++++++++++++++
 Total energy                               :       -76.19405151
 _______________________________________________________________
 Fermi energy                               :         0.19417491
 Kinetic energy                             :        75.58333537
 Coulomb energy                             :      -141.05177498
 Exchange energy                            :       -10.31004569
 Correlation energy                         :        -0.41556620
 
 DOS at Fermi energy (states/Ha/cell)       :         1.40492364
 
 Electron charges :
     core                                   :         4.00000000
     core leakage                           :         0.00129271
     valence                                :         8.00000000
     interstitial                           :         4.88196462
     charge in muffin-tin spheres :
                  atom     1     C          :         3.55901769
                  atom     2     C          :         3.55901769
     total charge in muffin-tins            :         7.11803538
     total charge                           :        12.00000000
 
 Wall time (seconds)                        :      1608.68
 
 RMS change in effective potential (target) :  0.765054E-05  ( 0.100000E-05)
 Absolute change in total energy   (target) :  0.219748E-03  ( 0.100000E-06)
 Charge distance                   (target) :  0.568062E-05  ( 0.100000E-04)
 Abs. change in max-nonIBS-force   (target) :  0.190048E-04  ( 0.250000E-05)
 
++++++++++++++++++++++++++++++++++++++++++++++++++++++++++++++++++++++++++++++++
| SCF iteration number :    9                                                  +
++++++++++++++++++++++++++++++++++++++++++++++++++++++++++++++++++++++++++++++++
 Total energy                               :       -76.19390980
 _______________________________________________________________
 Fermi energy                               :         0.19417851
 Kinetic energy                             :        75.58343072
 Coulomb energy                             :      -141.05173534
 Exchange energy                            :       -10.31003878
 Correlation energy                         :        -0.41556639
 
 DOS at Fermi energy (states/Ha/cell)       :         1.40494468
 
 Electron charges :
     core                                   :         4.00000000
     core leakage                           :         0.00129271
     valence                                :         8.00000000
     interstitial                           :         4.88197599
     charge in muffin-tin spheres :
                  atom     1     C          :         3.55901201
                  atom     2     C          :         3.55901201
     total charge in muffin-tins            :         7.11802401
     total charge                           :        12.00000000
 
 Wall time (seconds)                        :      1810.31
 
 RMS change in effective potential (target) :  0.139649E-05  ( 0.100000E-05)
 Absolute change in total energy   (target) :  0.141713E-03  ( 0.100000E-06)
 Charge distance                   (target) :  0.254148E-05  ( 0.100000E-04)
 Abs. change in max-nonIBS-force   (target) :  0.313041E-05  ( 0.250000E-05)
 
++++++++++++++++++++++++++++++++++++++++++++++++++++++++++++++++++++++++++++++++
| SCF iteration number :   10                                                  +
++++++++++++++++++++++++++++++++++++++++++++++++++++++++++++++++++++++++++++++++
 Total energy                               :       -76.19390955
 _______________________________________________________________
 Fermi energy                               :         0.19417853
 Kinetic energy                             :        75.58343126
 Coulomb energy                             :      -141.05173567
 Exchange energy                            :       -10.31003876
 Correlation energy                         :        -0.41556639
 
 DOS at Fermi energy (states/Ha/cell)       :         1.40494432
 
 Electron charges :
     core                                   :         4.00000000
     core leakage                           :         0.00129271
     valence                                :         8.00000000
     interstitial                           :         4.88197605
     charge in muffin-tin spheres :
                  atom     1     C          :         3.55901198
                  atom     2     C          :         3.55901198
     total charge in muffin-tins            :         7.11802395
     total charge                           :        12.00000000
 
 Wall time (seconds)                        :      2011.64
 
 RMS change in effective potential (target) :  0.940455E-07  ( 0.100000E-05)
 Absolute change in total energy   (target) :  0.241037E-06  ( 0.100000E-06)
 Charge distance                   (target) :  0.212967E-06  ( 0.100000E-04)
 Abs. change in max-nonIBS-force   (target) :  0.265394E-05  ( 0.250000E-05)
 
++++++++++++++++++++++++++++++++++++++++++++++++++++++++++++++++++++++++++++++++
| SCF iteration number :   11                                                  +
++++++++++++++++++++++++++++++++++++++++++++++++++++++++++++++++++++++++++++++++
 Total energy                               :       -76.19391000
 _______________________________________________________________
 Fermi energy                               :         0.19417852
 Kinetic energy                             :        75.58343098
 Coulomb energy                             :      -141.05173581
 Exchange energy                            :       -10.31003879
 Correlation energy                         :        -0.41556639
 
 DOS at Fermi energy (states/Ha/cell)       :         1.40494438
 
 Electron charges :
     core                                   :         4.00000000
     core leakage                           :         0.00129271
     valence                                :         8.00000000
     interstitial                           :         4.88197600
     charge in muffin-tin spheres :
                  atom     1     C          :         3.55901200
                  atom     2     C          :         3.55901200
     total charge in muffin-tins            :         7.11802400
     total charge                           :        12.00000000
 
 Wall time (seconds)                        :      2212.22
 
 RMS change in effective potential (target) :  0.129598E-07  ( 0.100000E-05)
 Absolute change in total energy   (target) :  0.448711E-06  ( 0.100000E-06)
 Charge distance                   (target) :  0.506403E-07  ( 0.100000E-04)
 Abs. change in max-nonIBS-force   (target) :  0.790593E-06  ( 0.250000E-05)
 
++++++++++++++++++++++++++++++++++++++++++++++++++++++++++++++++++++++++++++++++
| SCF iteration number :   12                                                  +
++++++++++++++++++++++++++++++++++++++++++++++++++++++++++++++++++++++++++++++++
 Total energy                               :       -76.19391003
 _______________________________________________________________
 Fermi energy                               :         0.19417852
 Kinetic energy                             :        75.58343096
 Coulomb energy                             :      -141.05173582
 Exchange energy                            :       -10.31003879
 Correlation energy                         :        -0.41556639
 
 DOS at Fermi energy (states/Ha/cell)       :         1.40494438
 
 Electron charges :
     core                                   :         4.00000000
     core leakage                           :         0.00129271
     valence                                :         8.00000000
     interstitial                           :         4.88197600
     charge in muffin-tin spheres :
                  atom     1     C          :         3.55901200
                  atom     2     C          :         3.55901200
     total charge in muffin-tins            :         7.11802400
     total charge                           :        12.00000000
 
 Wall time (seconds)                        :      2412.56
 
 RMS change in effective potential (target) :  0.824691E-08  ( 0.100000E-05)
 Absolute change in total energy   (target) :  0.292673E-07  ( 0.100000E-06)
 Charge distance                   (target) :  0.773952E-09  ( 0.100000E-04)
 Abs. change in max-nonIBS-force   (target) :  0.609620E-08  ( 0.250000E-05)
 
++++++++++++++++++++++++++++++++++++++++++++++++++++++++++++++++++++++++++++++++
| Convergence targets achieved. Performing final SCF iteration                 +
++++++++++++++++++++++++++++++++++++++++++++++++++++++++++++++++++++++++++++++++
 Total energy                               :       -76.20222628
 _______________________________________________________________
 Fermi energy                               :         0.19417852
 Kinetic energy                             :        75.58343097
 Coulomb energy                             :      -141.05173581
 Exchange energy                            :       -10.31003879
 Correlation energy                         :        -0.41556639
 DFT-D2 dispersion correction               :        -0.00831625
 
 DOS at Fermi energy (states/Ha/cell)       :         1.40494438
 
 Electron charges :
     core                                   :         4.00000000
     core leakage                           :         0.00129271
     valence                                :         8.00000000
     interstitial                           :         4.88197600
     charge in muffin-tin spheres :
                  atom     1     C          :         3.55901200
                  atom     2     C          :         3.55901200
     total charge in muffin-tins            :         7.11802400
     total charge                           :        12.00000000
 
++++++++++++++++++++++++++++++++++++++++++++++++++++++++++++++++++++++++++++++++
| Self-consistent loop stopped                                                 +
++++++++++++++++++++++++++++++++++++++++++++++++++++++++++++++++++++++++++++++++
 STATE.OUT is written
 
--------------------------------------------------------------------------------
| Writing atomic positions and forces                                          -
--------------------------------------------------------------------------------
 
 Atomic positions (lattice) :
 atom     1   C  :     0.00000000    0.00000000    0.00000000
 atom     2   C  :     0.33333333    0.33333333    0.00000000
 
 Total atomic forces including IBS (cartesian) :
 atom     1   C  :     0.00000000   -0.00061299   -0.00009432
 atom     2   C  :     0.00000000    0.00061299    0.00009432
 
 Atomic force components including IBS (cartesian) :
 atom     1   C  :     0.00000000   -0.02434901   -0.00202591   HF force
                 :     0.00000000    0.02378200    0.00190373   core correction
                 :     0.00000000    0.00042231    0.00006201   IBS correction
                 :     0.00000000   -0.00046829   -0.00003414   DFT-D2 force
 atom     2   C  :     0.00000000    0.02434901    0.00202591   HF force
                 :     0.00000000   -0.02378200   -0.00190373   core correction
                 :     0.00000000   -0.00042231   -0.00006201   IBS correction
                 :     0.00000000    0.00046829    0.00003414   DFT-D2 force
 
********************************************************************************
| Groundstate module stopped                                                   *
********************************************************************************
 
********************************************************************************
| Structure-optimization module started                                        *
********************************************************************************
 Output level for this task is set to normal
 
 Maximum displacement tau_BFGS   is         :         0.3000
 Maximum displacement tau_newton is         :         0.8000
 
++++++++++++++++++++++++++++++++++++++++++++++++++++++++++++++++++++++++++++++++
| Use harmonic method for optimizing atomic positions                          +
++++++++++++++++++++++++++++++++++++++++++++++++++++++++++++++++++++++++++++++++
 
--------------------------------------------------------------------------------
| Optimization step 0: Initialize optimization                                 -
--------------------------------------------------------------------------------
 Maximum force magnitude           (target) :         0.00062020  (  0.00001000)
 Total energy at this optimization step     :       -76.20222628
 
 Atomic positions at this step (lattice) :
 atom     1   C  :     0.00000000    0.00000000    0.00000000
 atom     2   C  :     0.33333333    0.33333333    0.00000000
 
 Total atomic forces including IBS (cartesian) :
 atom     1   C  :     0.00000000   -0.00061299   -0.00009432
 atom     2   C  :     0.00000000    0.00061299    0.00009432
 
--------------------------------------------------------------------------------
| Optimization step    1    (method = harmonic)                                -
--------------------------------------------------------------------------------
 Number of scf iterations                   :        12  (full newton step)
 Maximum force magnitude           (target) :         0.00026089  (  0.00001000)
 Total energy at this optimization step     :       -76.20222674
 
 Atomic positions at this step (lattice) :
 atom     1   C  :     0.00000000    0.00000000    0.00000000
 atom     2   C  :     0.33344497    0.33344497    0.00001114
 
 Total atomic forces including IBS (cartesian) :
 atom     1   C  :     0.00000000   -0.00025533   -0.00005357
 atom     2   C  :     0.00000000    0.00025533    0.00005357
 
 Time spent in this optimization step       :      2585.97 seconds
 
--------------------------------------------------------------------------------
| Optimization step    2    (method = harmonic)                                -
--------------------------------------------------------------------------------
 Number of scf iterations                   :        12  (full newton step)
 Maximum force magnitude           (target) :         0.00019257  (  0.00001000)
 Total energy at this optimization step     :       -76.20222683
 
 Atomic positions at this step (lattice) :
 atom     1   C  :     0.00000000    0.00000000    0.00000000
 atom     2   C  :     0.33358378    0.33358378    0.00003561
 
 Total atomic forces including IBS (cartesian) :
 atom     1   C  :     0.00000000    0.00019237    0.00000880
 atom     2   C  :     0.00000000   -0.00019237   -0.00000880
 
 Time spent in this optimization step       :      2591.97 seconds
 
--------------------------------------------------------------------------------
| Optimization step    3    (method = harmonic)                                -
--------------------------------------------------------------------------------
 Number of scf iterations                   :        11  (full harmonic step)
 Maximum force magnitude           (target) :         0.00000570  (  0.00001000)
 Total energy at this optimization step     :       -76.20222685
 
 Atomic positions at this step (lattice) :
 atom     1   C  :     0.00000000    0.00000000    0.00000000
 atom     2   C  :     0.33352339    0.33352339    0.00003650
 
 Total atomic forces including IBS (cartesian) :
 atom     1   C  :     0.00000000    0.00000121   -0.00000557
 atom     2   C  :     0.00000000   -0.00000121    0.00000557
 
 Time spent in this optimization step       :      2393.23 seconds
 
++++++++++++++++++++++++++++++++++++++++++++++++++++++++++++++++++++++++++++++++
| Force convergence target achieved                                            +
++++++++++++++++++++++++++++++++++++++++++++++++++++++++++++++++++++++++++++++++
 Total energy                               :       -76.20222685
 _______________________________________________________________
 Fermi energy                               :         0.19417067
 Kinetic energy                             :        75.58396910
 Coulomb energy                             :      -141.05217596
 Exchange energy                            :       -10.31013687
 Correlation energy                         :        -0.41556607
 DFT-D2 dispersion correction               :        -0.00831705
 
 DOS at Fermi energy (states/Ha/cell)       :         1.40584026
 
 Electron charges :
     core                                   :         4.00000000
     core leakage                           :         0.00129274
     valence                                :         8.00000000
     interstitial                           :         4.88171377
     charge in muffin-tin spheres :
                  atom     1     C          :         3.55914311
                  atom     2     C          :         3.55914311
     total charge in muffin-tins            :         7.11828623
     total charge                           :        12.00000000
 
 Optimized atomic positions (lattice) :
 atom     1   C  :     0.00000000    0.00000000    0.00000000
 atom     2   C  :     0.33352339    0.33352339    0.00003650
 
 Total atomic forces including IBS (cartesian) :
 atom     1   C  :     0.00000000    0.00000121   -0.00000557
 atom     2   C  :     0.00000000   -0.00000121    0.00000557
 
 Atomic force components including IBS (cartesian) :
 atom     1   C  :     0.00000000   -0.02374518   -0.00195451   HF force
                 :     0.00000000    0.02379352    0.00192148   core correction
                 :     0.00000000    0.00041911    0.00006165   IBS correction
                 :     0.00000000   -0.00046625   -0.00003418   DFT-D2 force
 atom     2   C  :     0.00000000    0.02374518    0.00195451   HF force
                 :     0.00000000   -0.02379352   -0.00192148   core correction
                 :     0.00000000   -0.00041911   -0.00006165   IBS correction
                 :     0.00000000    0.00046625    0.00003418   DFT-D2 force
 
********************************************************************************
| Structure-optimization module stopped                                        *
********************************************************************************
 
 Total time spent (seconds)                 :     10372.41
 
================================================================================
| EXCITING BORON stopped                                                       =
================================================================================
