================================================================================
| EXCITING CARBON started                                                      =
| version hash id:                                                             =
|                                                                              =
| Date (DD-MM-YYYY) : 22-12-2016                                               =
| Time (hh:mm:ss)   : 13:48:40                                                 =
|                                                                              =
| All units are atomic (Hartree, Bohr, etc.)                                   =
================================================================================

********************************************************************************
| Structural optimisation starting from atomic densities                       *
********************************************************************************

++++++++++++++++++++++++++++++++++++++++++++++++++++++++++++++++++++++++++++++++
| Starting initialization                                                      +
++++++++++++++++++++++++++++++++++++++++++++++++++++++++++++++++++++++++++++++++

 Lattice vectors (cartesian) :
      3.4234637070      3.4234637070      0.1330641355
      3.4234637070      0.1330641355      3.4234637070
      0.1330641355      3.4234637070      3.4234637070

 Reciprocal lattice vectors (cartesian) :
      0.9365739191      0.9365739191     -0.9729769335
      0.9365739191     -0.9729769335      0.9365739191
     -0.9729769335      0.9365739191      0.9365739191

 Unit cell volume                           :      75.5704793013
 Brillouin zone volume                      :       3.2823691968

 Species :    1 (C)
     parameters loaded from                 :    C.xml
     name                                   :    carbon
     nuclear charge                         :      -6.00000000
     electronic charge                      :       6.00000000
     atomic mass                            :   21894.16673000
     muffin-tin radius                      :       1.30000000
     # of radial points in muffin-tin       :     250

     atomic positions (lattice) :
       1 :   0.00000000  0.00000000  0.00000000
       2 :   0.25000000  0.25000000  0.25000000

 Total number of atoms per unit cell        :       2

 Spin treatment                             :    spin-unpolarised

 Number of Bravais lattice symmetries       :      12
 Number of crystal symmetries               :      12

 k-point grid                               :       6    6    6
 Total number of k-points                   :      32
 k-point set is reduced with crystal symmetries

 R^MT_min * |G+k|_max (rgkmax)              :       7.00000000
 Species with R^MT_min                      :       1 (C)
 Maximum |G+k| for APW functions            :       5.38461538
 Maximum |G| for potential and density      :      18.00000000

 G-vector grid sizes                        :      30    30    30
 Total number of G-vectors                  :    7481

 Maximum angular momentum used for
     APW functions                          :       8
     computing H and O matrix elements      :       8
     potential and density                  :       8
     inner part of muffin-tin               :       2

 Total nuclear charge                       :     -12.00000000
 Total electronic charge                    :      12.00000000
 Total core charge                          :       4.00000000
 Total valence charge                       :       8.00000000

 Number of empty states                     :       5
 Total number of valence states             :      10

 Maximum Hamiltonian size                   :     213
 Maximum number of plane-waves              :     205
 Total number of local-orbitals             :       8

 Exchange-correlation type                  :      22
     PBEsol, Phys. Rev. Lett. 100, 136406 (2008)
     Generalised gradient approximation (GGA)

 Smearing scheme                            :    Gaussian
 Smearing width                             :       0.00010000

 Using multisecant Broyden potential mixing

++++++++++++++++++++++++++++++++++++++++++++++++++++++++++++++++++++++++++++++++
| Ending initialization                                                        +
++++++++++++++++++++++++++++++++++++++++++++++++++++++++++++++++++++++++++++++++

********************************************************************************
| Groundstate module started                                                   *
********************************************************************************
 Output level for this task is set to normal

++++++++++++++++++++++++++++++++++++++++++++++++++++++++++++++++++++++++++++++++
| Self-consistent loop started                                                 +
++++++++++++++++++++++++++++++++++++++++++++++++++++++++++++++++++++++++++++++++
 Density and potential initialised from atomic data


++++++++++++++++++++++++++++++++++++++++++++++++++++++++++++++++++++++++++++++++
| SCF iteration number :    1                                                  +
++++++++++++++++++++++++++++++++++++++++++++++++++++++++++++++++++++++++++++++++
 Total energy                               :       -76.84641440
 _______________________________________________________________
 Fermi energy                               :         0.48257607
 Kinetic energy                             :        75.05098102
 Coulomb energy                             :      -141.30326308
 Exchange energy                            :       -10.09442198
 Correlation energy                         :        -0.49971036

 DOS at Fermi energy (states/Ha/cell)       :         0.00000000

 Electron charges :
     core                                   :         4.00000000
     core leakage                           :         0.00056820
     valence                                :         8.00000000
     interstitial                           :         4.01243154
     charge in muffin-tin spheres :
                  atom     1     C          :         3.99378423
                  atom     2     C          :         3.99378423
     total charge in muffin-tins            :         7.98756846
     total charge                           :        12.00000000

 Estimated fundamental gap                  :         0.16853633
        valence-band maximum at    1      0.0000  0.0000  0.0000
     conduction-band minimum at    1      0.0000  0.0000  0.0000

 Wall time (seconds)                        :         6.49

++++++++++++++++++++++++++++++++++++++++++++++++++++++++++++++++++++++++++++++++
| SCF iteration number :    2                                                  +
++++++++++++++++++++++++++++++++++++++++++++++++++++++++++++++++++++++++++++++++
 Total energy                               :       -76.51979579
 _______________________________________________________________
 Fermi energy                               :         0.49517166
 Kinetic energy                             :        75.23203754
 Coulomb energy                             :      -141.17476787
 Exchange energy                            :       -10.07620677
 Correlation energy                         :        -0.50085869

 DOS at Fermi energy (states/Ha/cell)       :         0.00000000

 Electron charges :
     core                                   :         4.00000000
     core leakage                           :         0.00057229
     valence                                :         8.00000000
     interstitial                           :         4.05145174
     charge in muffin-tin spheres :
                  atom     1     C          :         3.97427413
                  atom     2     C          :         3.97427413
     total charge in muffin-tins            :         7.94854826
     total charge                           :        12.00000000

 Estimated fundamental gap                  :         0.16589783
        valence-band maximum at    1      0.0000  0.0000  0.0000
     conduction-band minimum at    1      0.0000  0.0000  0.0000

 Wall time (seconds)                        :        12.23

 RMS change in effective potential (target) :   2.35779      ( 0.100000E-05)
 Absolute change in total energy   (target) :  0.326619      ( 0.100000E-05)
 Charge distance                   (target) :  0.746114E-02  ( 0.100000E-04)
 Abs. change in max-nonIBS-force   (target) :  0.539806E-01  ( 0.500000E-04)

++++++++++++++++++++++++++++++++++++++++++++++++++++++++++++++++++++++++++++++++
| SCF iteration number :    3                                                  +
++++++++++++++++++++++++++++++++++++++++++++++++++++++++++++++++++++++++++++++++
 Total energy                               :       -76.28116679
 _______________________________________________________________
 Fermi energy                               :         0.50443444
 Kinetic energy                             :        75.36426637
 Coulomb energy                             :      -141.08098836
 Exchange energy                            :       -10.06270678
 Correlation energy                         :        -0.50173803

 DOS at Fermi energy (states/Ha/cell)       :         0.00000000

 Electron charges :
     core                                   :         4.00000000
     core leakage                           :         0.00057498
     valence                                :         8.00000000
     interstitial                           :         4.08107437
     charge in muffin-tin spheres :
                  atom     1     C          :         3.95946282
                  atom     2     C          :         3.95946282
     total charge in muffin-tins            :         7.91892563
     total charge                           :        12.00000000

 Estimated fundamental gap                  :         0.15996666
        valence-band maximum at    1      0.0000  0.0000  0.0000
     conduction-band minimum at   10      0.3333  0.3333  0.0000

 Wall time (seconds)                        :        17.93

 RMS change in effective potential (target) :   1.72793      ( 0.100000E-05)
 Absolute change in total energy   (target) :  0.238629      ( 0.100000E-05)
 Charge distance                   (target) :  0.569315E-02  ( 0.100000E-04)
 Abs. change in max-nonIBS-force   (target) :  0.225774E-01  ( 0.500000E-04)

++++++++++++++++++++++++++++++++++++++++++++++++++++++++++++++++++++++++++++++++
| SCF iteration number :    4                                                  +
++++++++++++++++++++++++++++++++++++++++++++++++++++++++++++++++++++++++++++++++
 Total energy                               :       -76.02336186
 _______________________________________________________________
 Fermi energy                               :         0.51499795
 Kinetic energy                             :        75.51778456
 Coulomb energy                             :      -140.99235372
 Exchange energy                            :       -10.04574430
 Correlation energy                         :        -0.50304841

 DOS at Fermi energy (states/Ha/cell)       :         0.00000000

 Electron charges :
     core                                   :         4.00000000
     core leakage                           :         0.00057367
     valence                                :         8.00000000
     interstitial                           :         4.12379690
     charge in muffin-tin spheres :
                  atom     1     C          :         3.93810155
                  atom     2     C          :         3.93810155
     total charge in muffin-tins            :         7.87620310
     total charge                           :        12.00000000

 Estimated fundamental gap                  :         0.14571677
        valence-band maximum at    1      0.0000  0.0000  0.0000
     conduction-band minimum at   13      0.5000  0.5000  0.0000

 Wall time (seconds)                        :        23.61

 RMS change in effective potential (target) :  0.431004E-01  ( 0.100000E-05)
 Absolute change in total energy   (target) :  0.257805      ( 0.100000E-05)
 Charge distance                   (target) :  0.850509E-02  ( 0.100000E-04)
 Abs. change in max-nonIBS-force   (target) :  0.279847E-01  ( 0.500000E-04)

++++++++++++++++++++++++++++++++++++++++++++++++++++++++++++++++++++++++++++++++
| SCF iteration number :    5                                                  +
++++++++++++++++++++++++++++++++++++++++++++++++++++++++++++++++++++++++++++++++
 Total energy                               :       -75.82951731
 _______________________________________________________________
 Fermi energy                               :         0.52036195
 Kinetic energy                             :        75.61420483
 Coulomb energy                             :      -140.90423830
 Exchange energy                            :       -10.03588974
 Correlation energy                         :        -0.50359410

 DOS at Fermi energy (states/Ha/cell)       :         0.00000000

 Electron charges :
     core                                   :         4.00000000
     core leakage                           :         0.00057833
     valence                                :         8.00000000
     interstitial                           :         4.14276541
     charge in muffin-tin spheres :
                  atom     1     C          :         3.92861729
                  atom     2     C          :         3.92861729
     total charge in muffin-tins            :         7.85723459
     total charge                           :        12.00000000

 Estimated fundamental gap                  :         0.13924102
        valence-band maximum at    1      0.0000  0.0000  0.0000
     conduction-band minimum at   13      0.5000  0.5000  0.0000

 Wall time (seconds)                        :        29.29

 RMS change in effective potential (target) :  0.221434E-01  ( 0.100000E-05)
 Absolute change in total energy   (target) :  0.193845      ( 0.100000E-05)
 Charge distance                   (target) :  0.358313E-02  ( 0.100000E-04)
 Abs. change in max-nonIBS-force   (target) :  0.254003E-02  ( 0.500000E-04)

++++++++++++++++++++++++++++++++++++++++++++++++++++++++++++++++++++++++++++++++
| SCF iteration number :    6                                                  +
++++++++++++++++++++++++++++++++++++++++++++++++++++++++++++++++++++++++++++++++
 Total energy                               :       -75.88906902
 _______________________________________________________________
 Fermi energy                               :         0.51875540
 Kinetic energy                             :        75.58509396
 Coulomb energy                             :      -140.93176350
 Exchange energy                            :       -10.03897715
 Correlation energy                         :        -0.50342233

 DOS at Fermi energy (states/Ha/cell)       :         0.00000000

 Electron charges :
     core                                   :         4.00000000
     core leakage                           :         0.00057689
     valence                                :         8.00000000
     interstitial                           :         4.13682326
     charge in muffin-tin spheres :
                  atom     1     C          :         3.93158837
                  atom     2     C          :         3.93158837
     total charge in muffin-tins            :         7.86317674
     total charge                           :        12.00000000

 Estimated fundamental gap                  :         0.14134475
        valence-band maximum at    1      0.0000  0.0000  0.0000
     conduction-band minimum at   13      0.5000  0.5000  0.0000

 Wall time (seconds)                        :        34.95

 RMS change in effective potential (target) :  0.337997E-03  ( 0.100000E-05)
 Absolute change in total energy   (target) :  0.595517E-01  ( 0.100000E-05)
 Charge distance                   (target) :  0.113572E-02  ( 0.100000E-04)
 Abs. change in max-nonIBS-force   (target) :  0.476977E-02  ( 0.500000E-04)

++++++++++++++++++++++++++++++++++++++++++++++++++++++++++++++++++++++++++++++++
| SCF iteration number :    7                                                  +
++++++++++++++++++++++++++++++++++++++++++++++++++++++++++++++++++++++++++++++++
 Total energy                               :       -75.89040084
 _______________________________________________________________
 Fermi energy                               :         0.51871893
 Kinetic energy                             :        75.58441900
 Coulomb energy                             :      -140.93236182
 Exchange energy                            :       -10.03903904
 Correlation energy                         :        -0.50341899

 DOS at Fermi energy (states/Ha/cell)       :         0.00000000

 Electron charges :
     core                                   :         4.00000000
     core leakage                           :         0.00057686
     valence                                :         8.00000000
     interstitial                           :         4.13670745
     charge in muffin-tin spheres :
                  atom     1     C          :         3.93164628
                  atom     2     C          :         3.93164628
     total charge in muffin-tins            :         7.86329255
     total charge                           :        12.00000000

 Estimated fundamental gap                  :         0.14135672
        valence-band maximum at    1      0.0000  0.0000  0.0000
     conduction-band minimum at   13      0.5000  0.5000  0.0000

 Wall time (seconds)                        :        40.62

 RMS change in effective potential (target) :  0.639063E-04  ( 0.100000E-05)
 Absolute change in total energy   (target) :  0.133183E-02  ( 0.100000E-05)
 Charge distance                   (target) :  0.230407E-04  ( 0.100000E-04)
 Abs. change in max-nonIBS-force   (target) :  0.389961E-04  ( 0.500000E-04)

++++++++++++++++++++++++++++++++++++++++++++++++++++++++++++++++++++++++++++++++
| SCF iteration number :    8                                                  +
++++++++++++++++++++++++++++++++++++++++++++++++++++++++++++++++++++++++++++++++
 Total energy                               :       -75.89033697
 _______________________________________________________________
 Fermi energy                               :         0.51871995
 Kinetic energy                             :        75.58444274
 Coulomb energy                             :      -140.93232443
 Exchange energy                            :       -10.03903612
 Correlation energy                         :        -0.50341916

 DOS at Fermi energy (states/Ha/cell)       :         0.00000000

 Electron charges :
     core                                   :         4.00000000
     core leakage                           :         0.00057686
     valence                                :         8.00000000
     interstitial                           :         4.13671184
     charge in muffin-tin spheres :
                  atom     1     C          :         3.93164408
                  atom     2     C          :         3.93164408
     total charge in muffin-tins            :         7.86328816
     total charge                           :        12.00000000

 Estimated fundamental gap                  :         0.14136496
        valence-band maximum at    1      0.0000  0.0000  0.0000
     conduction-band minimum at   13      0.5000  0.5000  0.0000

 Wall time (seconds)                        :        46.29

 RMS change in effective potential (target) :  0.547803E-05  ( 0.100000E-05)
 Absolute change in total energy   (target) :  0.638698E-04  ( 0.100000E-05)
 Charge distance                   (target) :  0.560480E-05  ( 0.100000E-04)
 Abs. change in max-nonIBS-force   (target) :  0.590590E-04  ( 0.500000E-04)

++++++++++++++++++++++++++++++++++++++++++++++++++++++++++++++++++++++++++++++++
| SCF iteration number :    9                                                  +
++++++++++++++++++++++++++++++++++++++++++++++++++++++++++++++++++++++++++++++++
 Total energy                               :       -75.89031113
 _______________________________________________________________
 Fermi energy                               :         0.51872071
 Kinetic energy                             :        75.58445665
 Coulomb energy                             :      -140.93231374
 Exchange energy                            :       -10.03903481
 Correlation energy                         :        -0.50341922

 DOS at Fermi energy (states/Ha/cell)       :         0.00000000

 Electron charges :
     core                                   :         4.00000000
     core leakage                           :         0.00057686
     valence                                :         8.00000000
     interstitial                           :         4.13671442
     charge in muffin-tin spheres :
                  atom     1     C          :         3.93164279
                  atom     2     C          :         3.93164279
     total charge in muffin-tins            :         7.86328558
     total charge                           :        12.00000000

 Estimated fundamental gap                  :         0.14136225
        valence-band maximum at    1      0.0000  0.0000  0.0000
     conduction-band minimum at   13      0.5000  0.5000  0.0000

 Wall time (seconds)                        :        51.95

 RMS change in effective potential (target) :  0.963175E-06  ( 0.100000E-05)
 Absolute change in total energy   (target) :  0.258441E-04  ( 0.100000E-05)
 Charge distance                   (target) :  0.133049E-05  ( 0.100000E-04)
 Abs. change in max-nonIBS-force   (target) :  0.178891E-04  ( 0.500000E-04)

++++++++++++++++++++++++++++++++++++++++++++++++++++++++++++++++++++++++++++++++
| SCF iteration number :   10                                                  +
++++++++++++++++++++++++++++++++++++++++++++++++++++++++++++++++++++++++++++++++
 Total energy                               :       -75.89031104
 _______________________________________________________________
 Fermi energy                               :         0.51872073
 Kinetic energy                             :        75.58445686
 Coulomb energy                             :      -140.93231387
 Exchange energy                            :       -10.03903481
 Correlation energy                         :        -0.50341922

 DOS at Fermi energy (states/Ha/cell)       :         0.00000000

 Electron charges :
     core                                   :         4.00000000
     core leakage                           :         0.00057686
     valence                                :         8.00000000
     interstitial                           :         4.13671446
     charge in muffin-tin spheres :
                  atom     1     C          :         3.93164277
                  atom     2     C          :         3.93164277
     total charge in muffin-tins            :         7.86328554
     total charge                           :        12.00000000

 Estimated fundamental gap                  :         0.14136225
        valence-band maximum at    1      0.0000  0.0000  0.0000
     conduction-band minimum at   13      0.5000  0.5000  0.0000

 Wall time (seconds)                        :        57.62

 RMS change in effective potential (target) :  0.138993E-06  ( 0.100000E-05)
 Absolute change in total energy   (target) :  0.918079E-07  ( 0.100000E-05)
 Charge distance                   (target) :  0.134110E-07  ( 0.100000E-04)
 Abs. change in max-nonIBS-force   (target) :  0.144137E-06  ( 0.500000E-04)

++++++++++++++++++++++++++++++++++++++++++++++++++++++++++++++++++++++++++++++++
| SCF iteration number :   11                                                  +
++++++++++++++++++++++++++++++++++++++++++++++++++++++++++++++++++++++++++++++++
 Total energy                               :       -75.89031119
 _______________________________________________________________
 Fermi energy                               :         0.51872072
 Kinetic energy                             :        75.58445677
 Coulomb energy                             :      -140.93231392
 Exchange energy                            :       -10.03903482
 Correlation energy                         :        -0.50341922

 DOS at Fermi energy (states/Ha/cell)       :         0.00000000

 Electron charges :
     core                                   :         4.00000000
     core leakage                           :         0.00057686
     valence                                :         8.00000000
     interstitial                           :         4.13671444
     charge in muffin-tin spheres :
                  atom     1     C          :         3.93164278
                  atom     2     C          :         3.93164278
     total charge in muffin-tins            :         7.86328556
     total charge                           :        12.00000000

 Estimated fundamental gap                  :         0.14136226
        valence-band maximum at    1      0.0000  0.0000  0.0000
     conduction-band minimum at   13      0.5000  0.5000  0.0000

 Wall time (seconds)                        :        63.30

 RMS change in effective potential (target) :  0.116732E-07  ( 0.100000E-05)
 Absolute change in total energy   (target) :  0.152835E-06  ( 0.100000E-05)
 Charge distance                   (target) :  0.394182E-08  ( 0.100000E-04)
 Abs. change in max-nonIBS-force   (target) :  0.131032E-07  ( 0.500000E-04)
                                                                                
++++++++++++++++++++++++++++++++++++++++++++++++++++++++++++++++++++++++++++++++
| Convergency criteria checked for the last 2 iterations                       +
| Convergence targets achieved. Performing final SCF iteration                 +
++++++++++++++++++++++++++++++++++++++++++++++++++++++++++++++++++++++++++++++++
 Total energy                               :       -75.89031120
 _______________________________________________________________
 Fermi energy                               :         0.51872072
 Kinetic energy                             :        75.58445676
 Coulomb energy                             :      -140.93231392
 Exchange energy                            :       -10.03903482
 Correlation energy                         :        -0.50341922

 DOS at Fermi energy (states/Ha/cell)       :         0.00000000

 Electron charges :
     core                                   :         4.00000000
     core leakage                           :         0.00057686
     valence                                :         8.00000000
     interstitial                           :         4.13671444
     charge in muffin-tin spheres :
                  atom     1     C          :         3.93164278
                  atom     2     C          :         3.93164278
     total charge in muffin-tins            :         7.86328556
     total charge                           :        12.00000000

 Estimated fundamental gap                  :         0.14136226
        valence-band maximum at    1      0.0000  0.0000  0.0000
     conduction-band minimum at   13      0.5000  0.5000  0.0000

++++++++++++++++++++++++++++++++++++++++++++++++++++++++++++++++++++++++++++++++
| Self-consistent loop stopped                                                 +
++++++++++++++++++++++++++++++++++++++++++++++++++++++++++++++++++++++++++++++++
 STATE.OUT is written

--------------------------------------------------------------------------------
| Writing atomic positions and forces                                          -
--------------------------------------------------------------------------------

 Atomic positions (lattice) :
 atom     1   C  :     0.00000000    0.00000000    0.00000000
 atom     2   C  :     0.25000000    0.25000000    0.25000000

 Total atomic forces including IBS (cartesian) :
 atom     1   C  :     0.00068748    0.00068748    0.00068748
 atom     2   C  :    -0.00068748   -0.00068748   -0.00068748

 Atomic force components including IBS (cartesian) :
 atom     1   C  :    -0.00610589   -0.00610589   -0.00610589   HF force
                 :     0.00679087    0.00679087    0.00679087   core correction
                 :     0.00000250    0.00000250    0.00000250   IBS correction
 atom     2   C  :     0.00610589    0.00610589    0.00610589   HF force
                 :    -0.00679087   -0.00679087   -0.00679087   core correction
                 :    -0.00000250   -0.00000250   -0.00000250   IBS correction

********************************************************************************
| Groundstate module stopped                                                   *
********************************************************************************

********************************************************************************
| Structure-optimization module started                                        *
********************************************************************************
 Output level for this task is set to normal

 Maximum displacement tau_BFGS   is         :         0.3000
 Maximum displacement tau_newton is         :         0.2000

++++++++++++++++++++++++++++++++++++++++++++++++++++++++++++++++++++++++++++++++
| Use L-BFGS-B method for optimizing atomic positions                          +
++++++++++++++++++++++++++++++++++++++++++++++++++++++++++++++++++++++++++++++++

--------------------------------------------------------------------------------
| Optimization step 0: Initialize optimization                                 -
--------------------------------------------------------------------------------
 Maximum force magnitude           (target) :         0.00119074  (  0.00020000)
 Total energy at this optimization step     :       -75.89031120

 Atomic positions at this step (lattice) :
 atom     1   C  :     0.00000000    0.00000000    0.00000000
 atom     2   C  :     0.25000000    0.25000000    0.25000000

 Total atomic forces including IBS (cartesian) :
 atom     1   C  :     0.00068748    0.00068748    0.00068748
 atom     2   C  :    -0.00068748   -0.00068748   -0.00068748

--------------------------------------------------------------------------------
| Optimization step    1    (method = bfgs)                                    -
--------------------------------------------------------------------------------
 Number of investigated configurations      :         1
 Number of total scf iterations             :        15
 Maximum force magnitude           (target) :         0.00041161  (  0.00020000)
 Total energy at this optimization step     :       -75.89031303

 Atomic positions at this step (lattice) :
 atom     1   C  :     0.00000000    0.00000000    0.00000000
 atom     2   C  :     0.24980302    0.24980302    0.24980302

 Total atomic forces including IBS (cartesian) :
 atom     1   C  :     0.00023764    0.00023764    0.00023764
 atom     2   C  :    -0.00023764   -0.00023764   -0.00023764

 Time spent in this optimization step       :        89.12 seconds

--------------------------------------------------------------------------------
| Optimization step    2    (method = bfgs)                                    -
--------------------------------------------------------------------------------
 Number of investigated configurations      :         1
 Number of total scf iterations             :        10
 Maximum force magnitude           (target) :         0.00000158  (  0.00020000)
 Total energy at this optimization step     :       -75.89031325

 Atomic positions at this step (lattice) :
 atom     1   C  :     0.00000000    0.00000000    0.00000000
 atom     2   C  :     0.24969895    0.24969895    0.24969895

 Total atomic forces including IBS (cartesian) :
 atom     1   C  :    -0.00000091   -0.00000091   -0.00000091
 atom     2   C  :     0.00000091    0.00000091    0.00000091

 Time spent in this optimization step       :        58.33 seconds

++++++++++++++++++++++++++++++++++++++++++++++++++++++++++++++++++++++++++++++++
| Force convergence target achieved                                            +
++++++++++++++++++++++++++++++++++++++++++++++++++++++++++++++++++++++++++++++++
 Total energy                               :       -75.89031325
 _______________________________________________________________
 Fermi energy                               :         0.51896393
 Kinetic energy                             :        75.58373330
 Coulomb energy                             :      -140.93171846
 Exchange energy                            :       -10.03890880
 Correlation energy                         :        -0.50341929

 DOS at Fermi energy (states/Ha/cell)       :         0.00000000

 Electron charges :
     core                                   :         4.00000000
     core leakage                           :         0.00057684
     valence                                :         8.00000000
     interstitial                           :         4.13717142
     charge in muffin-tin spheres :
                  atom     1     C          :         3.93141429
                  atom     2     C          :         3.93141429
     total charge in muffin-tins            :         7.86282858
     total charge                           :        12.00000000

 Optimized atomic positions (lattice) :
 atom     1   C  :     0.00000000    0.00000000    0.00000000
 atom     2   C  :     0.24969895    0.24969895    0.24969895

 Total atomic forces including IBS (cartesian) :
 atom     1   C  :    -0.00000091   -0.00000091   -0.00000091
 atom     2   C  :     0.00000091    0.00000091    0.00000091

 Atomic force components including IBS (cartesian) :
 atom     1   C  :    -0.00687796   -0.00687796   -0.00687796   HF force
                 :     0.00686203    0.00686203    0.00686203   core correction
                 :     0.00001502    0.00001502    0.00001502   IBS correction
 atom     2   C  :     0.00687796    0.00687796    0.00687796   HF force
                 :    -0.00686203   -0.00686203   -0.00686203   core correction
                 :    -0.00001502   -0.00001502   -0.00001502   IBS correction

********************************************************************************
| Structure-optimization module stopped                                        *
********************************************************************************

 Total time spent (seconds)                 :       217.79

================================================================================
| EXCITING CARBON stopped                                                      =
================================================================================
