================================================================================
| EXCITING BORON started                                                       =
| version hash id:                                                             =
| MPI version using     16 processor(s)                                        =
|                                                                              =
| Date (DD-MM-YYYY) : 09-08-2015                                               =
| Time (hh:mm:ss)   : 22:07:38                                                 =
|                                                                              =
| All units are atomic (Hartree, Bohr, etc.)                                   =
================================================================================
 
********************************************************************************
| Structural optimisation starting from atomic densities                       *
********************************************************************************
 
++++++++++++++++++++++++++++++++++++++++++++++++++++++++++++++++++++++++++++++++
| Starting initialization                                                      +
++++++++++++++++++++++++++++++++++++++++++++++++++++++++++++++++++++++++++++++++
 
 Lattice vectors (cartesian) :
      2.4626653203      4.2654614568      0.0000000000
     -2.4626653203      4.2654614568      0.0000000000
      0.0000000000      0.0000000000      6.9594921953
 
 Reciprocal lattice vectors (cartesian) :
      1.2756880229      0.7365188234      0.0000000000
     -1.2756880229      0.7365188234      0.0000000000
      0.0000000000      0.0000000000      0.9028223800
 
 Unit cell volume                           :     146.2106353779
 Brillouin zone volume                      :       1.6965264722
 
 Species :    1 (C)
     parameters loaded from                 :    C.xml
     name                                   :    carbon
     nuclear charge                         :      -6.00000000
     electronic charge                      :       6.00000000
     atomic mass                            :   21894.16673000
     muffin-tin radius                      :       1.20000000
     # of radial points in muffin-tin       :     250
 
     atomic positions (lattice) :
       1 :   0.00000000  0.00000000  0.00000000
       2 :   0.33333333  0.33333333  0.00000000
 
 Total number of atoms per unit cell        :       2
 
 Spin treatment                             :    spin-unpolarised
 
 Number of Bravais lattice symmetries       :      24
 Number of crystal symmetries               :      24
 
 k-point grid                               :      34   34   24
 Total number of k-points                   :    1482
 k-point set is reduced with crystal symmetries
 
 R^MT_min * |G+k|_max (rgkmax)              :       8.00000000
 Species with R^MT_min                      :       1 (C)
 Maximum |G+k| for APW functions            :       6.66666667
 Maximum |G| for potential and density      :      20.00000000
 
 G-vector grid sizes                        :      32    32    45
 Total number of G-vectors                  :   19605
 
 Maximum angular momentum used for
     APW functions                          :       8
     computing H and O matrix elements      :       8
     potential and density                  :       8
     inner part of muffin-tin               :       2
 
 Total nuclear charge                       :     -12.00000000
 Total electronic charge                    :      12.00000000
 Total core charge                          :       4.00000000
 Total valence charge                       :       8.00000000
 
 Number of empty states                     :       5
 Total number of valence states             :      10
 
 Maximum Hamiltonian size                   :     758
 Maximum number of plane-waves              :     750
 Total number of local-orbitals             :       8
 
 Exchange-correlation type                  :      20
     Perdew-Burke-Ernzerhof, Phys. Rev. Lett. 77, 3865 (1996)
     Generalised gradient approximation (GGA)
 
 Smearing scheme                            :    Gaussian
 Smearing width                             :       0.01000000
 
 Using multisecant Broyden potential mixing
 
++++++++++++++++++++++++++++++++++++++++++++++++++++++++++++++++++++++++++++++++
| Ending initialization                                                        +
++++++++++++++++++++++++++++++++++++++++++++++++++++++++++++++++++++++++++++++++
 
********************************************************************************
| Groundstate module started                                                   *
********************************************************************************
 Output level for this task is set to normal
 
++++++++++++++++++++++++++++++++++++++++++++++++++++++++++++++++++++++++++++++++
| Self-consistent loop started                                                 +
++++++++++++++++++++++++++++++++++++++++++++++++++++++++++++++++++++++++++++++++
 Density and potential initialised from atomic data
 
 
++++++++++++++++++++++++++++++++++++++++++++++++++++++++++++++++++++++++++++++++
| SCF iteration number :    1                                                  +
++++++++++++++++++++++++++++++++++++++++++++++++++++++++++++++++++++++++++++++++
 Total energy                               :       -77.79834696
 _______________________________________________________________
 Fermi energy                               :         0.11261582
 Kinetic energy                             :        74.35929616
 Coulomb energy                             :      -141.38724959
 Exchange energy                            :       -10.36044058
 Correlation energy                         :        -0.40995295
 
 DOS at Fermi energy (states/Ha/cell)       :         1.07998186
 
 Electron charges :
     core                                   :         4.00000000
     core leakage                           :         0.00127228
     valence                                :         8.00000000
     interstitial                           :         4.80403069
     charge in muffin-tin spheres :
                  atom     1     C          :         3.59798465
                  atom     2     C          :         3.59798465
     total charge in muffin-tins            :         7.19596931
     total charge                           :        12.00000000
 
 Wall time (seconds)                        :        56.07
 
++++++++++++++++++++++++++++++++++++++++++++++++++++++++++++++++++++++++++++++++
| SCF iteration number :    2                                                  +
++++++++++++++++++++++++++++++++++++++++++++++++++++++++++++++++++++++++++++++++
 Total energy                               :       -77.20282155
 _______________________________________________________________
 Fermi energy                               :         0.12975452
 Kinetic energy                             :        74.76052245
 Coulomb energy                             :      -141.22176488
 Exchange energy                            :       -10.33097032
 Correlation energy                         :        -0.41060880
 
 DOS at Fermi energy (states/Ha/cell)       :         1.12945633
 
 Electron charges :
     core                                   :         4.00000000
     core leakage                           :         0.00128030
     valence                                :         8.00000000
     interstitial                           :         4.85278436
     charge in muffin-tin spheres :
                  atom     1     C          :         3.57360782
                  atom     2     C          :         3.57360782
     total charge in muffin-tins            :         7.14721564
     total charge                           :        12.00000000
 
 Wall time (seconds)                        :       111.09
 
 RMS change in effective potential (target) :   1.53472      ( 0.100000E-05)
 Absolute change in total energy   (target) :  0.595525      ( 0.100000E-06)
 Charge distance                   (target) :  0.103430E-01  ( 0.100000E-04)
 Abs. change in max-nonIBS-force   (target) :   0.00000      ( 0.250000E-05)
 
++++++++++++++++++++++++++++++++++++++++++++++++++++++++++++++++++++++++++++++++
| SCF iteration number :    3                                                  +
++++++++++++++++++++++++++++++++++++++++++++++++++++++++++++++++++++++++++++++++
 Total energy                               :       -76.78452231
 _______________________________________________________________
 Fermi energy                               :         0.14148797
 Kinetic energy                             :        75.04134698
 Coulomb energy                             :      -141.10486775
 Exchange energy                            :       -10.30989353
 Correlation energy                         :        -0.41110801
 
 DOS at Fermi energy (states/Ha/cell)       :         1.16926724
 
 Electron charges :
     core                                   :         4.00000000
     core leakage                           :         0.00128520
     valence                                :         8.00000000
     interstitial                           :         4.88790531
     charge in muffin-tin spheres :
                  atom     1     C          :         3.55604735
                  atom     2     C          :         3.55604735
     total charge in muffin-tins            :         7.11209469
     total charge                           :        12.00000000
 
 Wall time (seconds)                        :       166.37
 
 RMS change in effective potential (target) :   1.12922      ( 0.100000E-05)
 Absolute change in total energy   (target) :  0.418299      ( 0.100000E-06)
 Charge distance                   (target) :  0.754466E-02  ( 0.100000E-04)
 Abs. change in max-nonIBS-force   (target) :   0.00000      ( 0.250000E-05)
 
++++++++++++++++++++++++++++++++++++++++++++++++++++++++++++++++++++++++++++++++
| SCF iteration number :    4                                                  +
++++++++++++++++++++++++++++++++++++++++++++++++++++++++++++++++++++++++++++++++
 Total energy                               :       -76.61917768
 _______________________________________________________________
 Fermi energy                               :         0.14605964
 Kinetic energy                             :        75.16763833
 Coulomb energy                             :      -141.07604258
 Exchange energy                            :       -10.29936798
 Correlation energy                         :        -0.41140546
 
 DOS at Fermi energy (states/Ha/cell)       :         1.19338330
 
 Electron charges :
     core                                   :         4.00000000
     core leakage                           :         0.00127692
     valence                                :         8.00000000
     interstitial                           :         4.90891515
     charge in muffin-tin spheres :
                  atom     1     C          :         3.54554242
                  atom     2     C          :         3.54554242
     total charge in muffin-tins            :         7.09108485
     total charge                           :        12.00000000
 
 Wall time (seconds)                        :       221.92
 
 RMS change in effective potential (target) :  0.475937E-01  ( 0.100000E-05)
 Absolute change in total energy   (target) :  0.165345      ( 0.100000E-06)
 Charge distance                   (target) :  0.511747E-02  ( 0.100000E-04)
 Abs. change in max-nonIBS-force   (target) :   0.00000      ( 0.250000E-05)
 
++++++++++++++++++++++++++++++++++++++++++++++++++++++++++++++++++++++++++++++++
| SCF iteration number :    5                                                  +
++++++++++++++++++++++++++++++++++++++++++++++++++++++++++++++++++++++++++++++++
 Total energy                               :       -75.95592450
 _______________________________________________________________
 Fermi energy                               :         0.16379092
 Kinetic energy                             :        75.59108584
 Coulomb energy                             :      -140.86805955
 Exchange energy                            :       -10.26672256
 Correlation energy                         :        -0.41222823
 
 DOS at Fermi energy (states/Ha/cell)       :         1.26228278
 
 Electron charges :
     core                                   :         4.00000000
     core leakage                           :         0.00129225
     valence                                :         8.00000000
     interstitial                           :         4.96063839
     charge in muffin-tin spheres :
                  atom     1     C          :         3.51968081
                  atom     2     C          :         3.51968081
     total charge in muffin-tins            :         7.03936161
     total charge                           :        12.00000000
 
 Wall time (seconds)                        :       277.38
 
 RMS change in effective potential (target) :  0.276869E-01  ( 0.100000E-05)
 Absolute change in total energy   (target) :  0.663253      ( 0.100000E-06)
 Charge distance                   (target) :  0.108536E-01  ( 0.100000E-04)
 Abs. change in max-nonIBS-force   (target) :   0.00000      ( 0.250000E-05)
 
++++++++++++++++++++++++++++++++++++++++++++++++++++++++++++++++++++++++++++++++
| SCF iteration number :    6                                                  +
++++++++++++++++++++++++++++++++++++++++++++++++++++++++++++++++++++++++++++++++
 Total energy                               :       -76.19105888
 _______________________________________________________________
 Fermi energy                               :         0.15759195
 Kinetic energy                             :        75.44148862
 Coulomb energy                             :      -140.94224153
 Exchange energy                            :       -10.27837564
 Correlation energy                         :        -0.41193034
 
 DOS at Fermi energy (states/Ha/cell)       :         1.23670411
 
 Electron charges :
     core                                   :         4.00000000
     core leakage                           :         0.00128691
     valence                                :         8.00000000
     interstitial                           :         4.94216792
     charge in muffin-tin spheres :
                  atom     1     C          :         3.52891604
                  atom     2     C          :         3.52891604
     total charge in muffin-tins            :         7.05783208
     total charge                           :        12.00000000
 
 Wall time (seconds)                        :       333.08
 
 RMS change in effective potential (target) :  0.350731E-03  ( 0.100000E-05)
 Absolute change in total energy   (target) :  0.235134      ( 0.100000E-06)
 Charge distance                   (target) :  0.390101E-02  ( 0.100000E-04)
 Abs. change in max-nonIBS-force   (target) :   0.00000      ( 0.250000E-05)
 
++++++++++++++++++++++++++++++++++++++++++++++++++++++++++++++++++++++++++++++++
| SCF iteration number :    7                                                  +
++++++++++++++++++++++++++++++++++++++++++++++++++++++++++++++++++++++++++++++++
 Total energy                               :       -76.19367357
 _______________________________________________________________
 Fermi energy                               :         0.15752095
 Kinetic energy                             :        75.43995035
 Coulomb energy                             :      -140.94319504
 Exchange energy                            :       -10.27850257
 Correlation energy                         :        -0.41192631
 
 DOS at Fermi energy (states/Ha/cell)       :         1.23649356
 
 Electron charges :
     core                                   :         4.00000000
     core leakage                           :         0.00128680
     valence                                :         8.00000000
     interstitial                           :         4.94197097
     charge in muffin-tin spheres :
                  atom     1     C          :         3.52901452
                  atom     2     C          :         3.52901452
     total charge in muffin-tins            :         7.05802903
     total charge                           :        12.00000000
 
 Wall time (seconds)                        :       388.32
 
 RMS change in effective potential (target) :  0.929119E-04  ( 0.100000E-05)
 Absolute change in total energy   (target) :  0.261469E-02  ( 0.100000E-06)
 Charge distance                   (target) :  0.383826E-04  ( 0.100000E-04)
 Abs. change in max-nonIBS-force   (target) :   0.00000      ( 0.250000E-05)
 
++++++++++++++++++++++++++++++++++++++++++++++++++++++++++++++++++++++++++++++++
| SCF iteration number :    8                                                  +
++++++++++++++++++++++++++++++++++++++++++++++++++++++++++++++++++++++++++++++++
 Total energy                               :       -76.19378302
 _______________________________________________________________
 Fermi energy                               :         0.15751759
 Kinetic energy                             :        75.43983396
 Coulomb energy                             :      -140.94318383
 Exchange energy                            :       -10.27850677
 Correlation energy                         :        -0.41192637
 
 DOS at Fermi energy (states/Ha/cell)       :         1.23646448
 
 Electron charges :
     core                                   :         4.00000000
     core leakage                           :         0.00128681
     valence                                :         8.00000000
     interstitial                           :         4.94196261
     charge in muffin-tin spheres :
                  atom     1     C          :         3.52901869
                  atom     2     C          :         3.52901869
     total charge in muffin-tins            :         7.05803739
     total charge                           :        12.00000000
 
 Wall time (seconds)                        :       443.98
 
 RMS change in effective potential (target) :  0.126247E-04  ( 0.100000E-05)
 Absolute change in total energy   (target) :  0.109450E-03  ( 0.100000E-06)
 Charge distance                   (target) :  0.354600E-05  ( 0.100000E-04)
 Abs. change in max-nonIBS-force   (target) :   0.00000      ( 0.250000E-05)
 
++++++++++++++++++++++++++++++++++++++++++++++++++++++++++++++++++++++++++++++++
| SCF iteration number :    9                                                  +
++++++++++++++++++++++++++++++++++++++++++++++++++++++++++++++++++++++++++++++++
 Total energy                               :       -76.19365031
 _______________________________________________________________
 Fermi energy                               :         0.15752121
 Kinetic energy                             :        75.43992855
 Coulomb energy                             :      -140.94315185
 Exchange energy                            :       -10.27850052
 Correlation energy                         :        -0.41192650
 
 DOS at Fermi energy (states/Ha/cell)       :         1.23648164
 
 Electron charges :
     core                                   :         4.00000000
     core leakage                           :         0.00128681
     valence                                :         8.00000000
     interstitial                           :         4.94197291
     charge in muffin-tin spheres :
                  atom     1     C          :         3.52901354
                  atom     2     C          :         3.52901354
     total charge in muffin-tins            :         7.05802709
     total charge                           :        12.00000000
 
 Wall time (seconds)                        :       499.59
 
 RMS change in effective potential (target) :  0.900090E-06  ( 0.100000E-05)
 Absolute change in total energy   (target) :  0.132703E-03  ( 0.100000E-06)
 Charge distance                   (target) :  0.238539E-05  ( 0.100000E-04)
 Abs. change in max-nonIBS-force   (target) :   0.00000      ( 0.250000E-05)
 
++++++++++++++++++++++++++++++++++++++++++++++++++++++++++++++++++++++++++++++++
| SCF iteration number :   10                                                  +
++++++++++++++++++++++++++++++++++++++++++++++++++++++++++++++++++++++++++++++++
 Total energy                               :       -76.19365237
 _______________________________________________________________
 Fermi energy                               :         0.15752116
 Kinetic energy                             :        75.43992750
 Coulomb energy                             :      -140.94315276
 Exchange energy                            :       -10.27850063
 Correlation energy                         :        -0.41192649
 
 DOS at Fermi energy (states/Ha/cell)       :         1.23648149
 
 Electron charges :
     core                                   :         4.00000000
     core leakage                           :         0.00128681
     valence                                :         8.00000000
     interstitial                           :         4.94197275
     charge in muffin-tin spheres :
                  atom     1     C          :         3.52901363
                  atom     2     C          :         3.52901363
     total charge in muffin-tins            :         7.05802725
     total charge                           :        12.00000000
 
 Wall time (seconds)                        :       554.98
 
 RMS change in effective potential (target) :  0.677868E-07  ( 0.100000E-05)
 Absolute change in total energy   (target) :  0.206020E-05  ( 0.100000E-06)
 Charge distance                   (target) :  0.322136E-07  ( 0.100000E-04)
 Abs. change in max-nonIBS-force   (target) :   0.00000      ( 0.250000E-05)
 
++++++++++++++++++++++++++++++++++++++++++++++++++++++++++++++++++++++++++++++++
| SCF iteration number :   11                                                  +
++++++++++++++++++++++++++++++++++++++++++++++++++++++++++++++++++++++++++++++++
 Total energy                               :       -76.19365249
 _______________________________________________________________
 Fermi energy                               :         0.15752116
 Kinetic energy                             :        75.43992740
 Coulomb energy                             :      -140.94315277
 Exchange energy                            :       -10.27850063
 Correlation energy                         :        -0.41192649
 
 DOS at Fermi energy (states/Ha/cell)       :         1.23648147
 
 Electron charges :
     core                                   :         4.00000000
     core leakage                           :         0.00128681
     valence                                :         8.00000000
     interstitial                           :         4.94197274
     charge in muffin-tin spheres :
                  atom     1     C          :         3.52901363
                  atom     2     C          :         3.52901363
     total charge in muffin-tins            :         7.05802726
     total charge                           :        12.00000000
 
 Wall time (seconds)                        :       610.29
 
 RMS change in effective potential (target) :  0.972841E-08  ( 0.100000E-05)
 Absolute change in total energy   (target) :  0.116591E-06  ( 0.100000E-06)
 Charge distance                   (target) :  0.258797E-08  ( 0.100000E-04)
 Abs. change in max-nonIBS-force   (target) :   0.00000      ( 0.250000E-05)
 
++++++++++++++++++++++++++++++++++++++++++++++++++++++++++++++++++++++++++++++++
| SCF iteration number :   12                                                  +
++++++++++++++++++++++++++++++++++++++++++++++++++++++++++++++++++++++++++++++++
 Total energy                               :       -76.19365248
 _______________________________________________________________
 Fermi energy                               :         0.15752116
 Kinetic energy                             :        75.43992741
 Coulomb energy                             :      -140.94315277
 Exchange energy                            :       -10.27850063
 Correlation energy                         :        -0.41192649
 
 DOS at Fermi energy (states/Ha/cell)       :         1.23648147
 
 Electron charges :
     core                                   :         4.00000000
     core leakage                           :         0.00128681
     valence                                :         8.00000000
     interstitial                           :         4.94197274
     charge in muffin-tin spheres :
                  atom     1     C          :         3.52901363
                  atom     2     C          :         3.52901363
     total charge in muffin-tins            :         7.05802726
     total charge                           :        12.00000000
 
 Wall time (seconds)                        :       666.45
 
 RMS change in effective potential (target) :  0.173918E-07  ( 0.100000E-05)
 Absolute change in total energy   (target) :  0.891336E-08  ( 0.100000E-06)
 Charge distance                   (target) :  0.147384E-09  ( 0.100000E-04)
 Abs. change in max-nonIBS-force   (target) :   0.00000      ( 0.250000E-05)
 
++++++++++++++++++++++++++++++++++++++++++++++++++++++++++++++++++++++++++++++++
| Convergence targets achieved. Performing final SCF iteration                 +
++++++++++++++++++++++++++++++++++++++++++++++++++++++++++++++++++++++++++++++++
 Total energy                               :       -76.20084321
 _______________________________________________________________
 Fermi energy                               :         0.15752116
 Kinetic energy                             :        75.43992739
 Coulomb energy                             :      -140.94315277
 Exchange energy                            :       -10.27850063
 Correlation energy                         :        -0.41192649
 DFT-D2 dispersion correction               :        -0.00719071
 
 DOS at Fermi energy (states/Ha/cell)       :         1.23648147
 
 Electron charges :
     core                                   :         4.00000000
     core leakage                           :         0.00128681
     valence                                :         8.00000000
     interstitial                           :         4.94197274
     charge in muffin-tin spheres :
                  atom     1     C          :         3.52901363
                  atom     2     C          :         3.52901363
     total charge in muffin-tins            :         7.05802726
     total charge                           :        12.00000000
 
++++++++++++++++++++++++++++++++++++++++++++++++++++++++++++++++++++++++++++++++
| Self-consistent loop stopped                                                 +
++++++++++++++++++++++++++++++++++++++++++++++++++++++++++++++++++++++++++++++++
 STATE.OUT is written
 
--------------------------------------------------------------------------------
| Writing atomic positions and forces                                          -
--------------------------------------------------------------------------------
 
 Atomic positions (lattice) :
 atom     1   C  :     0.00000000    0.00000000    0.00000000
 atom     2   C  :     0.33333333    0.33333333    0.00000000
 
 Total atomic forces including IBS (cartesian) :
 atom     1   C  :     0.00000000    0.00000000    0.00000000
 atom     2   C  :     0.00000000    0.00000000    0.00000000
 
 Atomic force components including IBS (cartesian) :
 atom     1   C  :     0.00000000    0.00000000    0.00000000   HF force
                 :     0.00000000    0.00000000    0.00000000   core correction
                 :     0.00000000    0.00000000    0.00000000   IBS correction
                 :     0.00000000    0.00000000    0.00000000   DFT-D2 force
 atom     2   C  :     0.00000000    0.00000000    0.00000000   HF force
                 :     0.00000000    0.00000000    0.00000000   core correction
                 :     0.00000000    0.00000000    0.00000000   IBS correction
                 :     0.00000000    0.00000000    0.00000000   DFT-D2 force
 
********************************************************************************
| Groundstate module stopped                                                   *
********************************************************************************
 
********************************************************************************
| Structure-optimization module started                                        *
********************************************************************************
 Output level for this task is set to normal
 
 Maximum displacement tau_BFGS   is         :         0.3000
 Maximum displacement tau_newton is         :         0.8000
 Maximum force target reached already at the initial configuration
 
********************************************************************************
| Structure-optimization module stopped                                        *
********************************************************************************
 
 Total time spent (seconds)                 :       766.72
 
================================================================================
| EXCITING BORON stopped                                                       =
================================================================================
