================================================================================
| EXCITING CARBON started                                                      =
| version hash id:                                                             =
|                                                                              =
| Date (DD-MM-YYYY) : 22-12-2016                                               =
| Time (hh:mm:ss)   : 13:14:26                                                 =
|                                                                              =
| All units are atomic (Hartree, Bohr, etc.)                                   =
================================================================================

********************************************************************************
| Structural optimisation starting from atomic densities                       *
********************************************************************************

++++++++++++++++++++++++++++++++++++++++++++++++++++++++++++++++++++++++++++++++
| Starting initialization                                                      +
++++++++++++++++++++++++++++++++++++++++++++++++++++++++++++++++++++++++++++++++

 Lattice vectors (cartesian) :
      3.3244978871      3.3244978871      0.0000000000
      3.3244978871      0.0000000000      3.3582500000
      0.0000000000      3.3244978871      3.3582500000

 Reciprocal lattice vectors (cartesian) :
      0.9449825990      0.9449825990     -0.9354850454
      0.9449825990     -0.9449825990      0.9354850454
     -0.9449825990      0.9449825990      0.9354850454

 Unit cell volume                           :      74.2326802708
 Brillouin zone volume                      :       3.3415230669

 Species :    1 (C)
     parameters loaded from                 :    C.xml
     name                                   :    carbon
     nuclear charge                         :      -6.00000000
     electronic charge                      :       6.00000000
     atomic mass                            :   21894.16673000
     muffin-tin radius                      :       1.30000000
     # of radial points in muffin-tin       :     250

     atomic positions (lattice) :
       1 :   0.00000000  0.00000000  0.00000000
       2 :   0.25000000  0.25000000  0.25000000

 Total number of atoms per unit cell        :       2

 Spin treatment                             :    spin-unpolarised

 Number of Bravais lattice symmetries       :      16
 Number of crystal symmetries               :      16

 k-point grid                               :       6    6    6
 Total number of k-points                   :      30
 k-point set is reduced with crystal symmetries

 R^MT_min * |G+k|_max (rgkmax)              :       7.00000000
 Species with R^MT_min                      :       1 (C)
 Maximum |G+k| for APW functions            :       5.38461538
 Maximum |G| for potential and density      :      18.00000000

 G-vector grid sizes                        :      27    30    30
 Total number of G-vectors                  :    7343

 Maximum angular momentum used for
     APW functions                          :       8
     computing H and O matrix elements      :       8
     potential and density                  :       8
     inner part of muffin-tin               :       2

 Total nuclear charge                       :     -12.00000000
 Total electronic charge                    :      12.00000000
 Total core charge                          :       4.00000000
 Total valence charge                       :       8.00000000

 Number of empty states                     :       5
 Total number of valence states             :      10

 Maximum Hamiltonian size                   :     210
 Maximum number of plane-waves              :     202
 Total number of local-orbitals             :       8

 Exchange-correlation type                  :      22
     PBEsol, Phys. Rev. Lett. 100, 136406 (2008)
     Generalised gradient approximation (GGA)

 Smearing scheme                            :    Gaussian
 Smearing width                             :       0.00010000

 Using multisecant Broyden potential mixing

++++++++++++++++++++++++++++++++++++++++++++++++++++++++++++++++++++++++++++++++
| Ending initialization                                                        +
++++++++++++++++++++++++++++++++++++++++++++++++++++++++++++++++++++++++++++++++

********************************************************************************
| Groundstate module started                                                   *
********************************************************************************
 Output level for this task is set to normal

++++++++++++++++++++++++++++++++++++++++++++++++++++++++++++++++++++++++++++++++
| Self-consistent loop started                                                 +
++++++++++++++++++++++++++++++++++++++++++++++++++++++++++++++++++++++++++++++++
 Density and potential initialised from atomic data


++++++++++++++++++++++++++++++++++++++++++++++++++++++++++++++++++++++++++++++++
| SCF iteration number :    1                                                  +
++++++++++++++++++++++++++++++++++++++++++++++++++++++++++++++++++++++++++++++++
 Total energy                               :       -76.86317058
 _______________________________________________________________
 Fermi energy                               :         0.49589833
 Kinetic energy                             :        75.09693285
 Coulomb energy                             :      -141.35060633
 Exchange energy                            :       -10.10861955
 Correlation energy                         :        -0.50087754

 DOS at Fermi energy (states/Ha/cell)       :         0.00000000

 Electron charges :
     core                                   :         4.00000000
     core leakage                           :         0.00056888
     valence                                :         8.00000000
     interstitial                           :         3.98244903
     charge in muffin-tin spheres :
                  atom     1     C          :         4.00877549
                  atom     2     C          :         4.00877549
     total charge in muffin-tins            :         8.01755097
     total charge                           :        12.00000000

 Estimated fundamental gap                  :         0.17580074
        valence-band maximum at    1      0.0000  0.0000  0.0000
     conduction-band minimum at   10      0.3333  0.3333  0.0000

 Wall time (seconds)                        :         6.07

++++++++++++++++++++++++++++++++++++++++++++++++++++++++++++++++++++++++++++++++
| SCF iteration number :    2                                                  +
++++++++++++++++++++++++++++++++++++++++++++++++++++++++++++++++++++++++++++++++
 Total energy                               :       -76.53298499
 _______________________________________________________________
 Fermi energy                               :         0.50797564
 Kinetic energy                             :        75.27902755
 Coulomb energy                             :      -141.21975336
 Exchange energy                            :       -10.09020297
 Correlation energy                         :        -0.50205622

 DOS at Fermi energy (states/Ha/cell)       :         0.00000000

 Electron charges :
     core                                   :         4.00000000
     core leakage                           :         0.00057313
     valence                                :         8.00000000
     interstitial                           :         4.02196410
     charge in muffin-tin spheres :
                  atom     1     C          :         3.98901795
                  atom     2     C          :         3.98901795
     total charge in muffin-tins            :         7.97803590
     total charge                           :        12.00000000

 Estimated fundamental gap                  :         0.16677105
        valence-band maximum at    1      0.0000  0.0000  0.0000
     conduction-band minimum at   10      0.3333  0.3333  0.0000

 Wall time (seconds)                        :        11.44

 RMS change in effective potential (target) :   2.40906      ( 0.100000E-05)
 Absolute change in total energy   (target) :  0.330186      ( 0.100000E-05)
 Charge distance                   (target) :  0.749277E-02  ( 0.100000E-04)
 Abs. change in max-nonIBS-force   (target) :   0.00000      ( 0.500000E-04)

++++++++++++++++++++++++++++++++++++++++++++++++++++++++++++++++++++++++++++++++
| SCF iteration number :    3                                                  +
++++++++++++++++++++++++++++++++++++++++++++++++++++++++++++++++++++++++++++++++
 Total energy                               :       -76.29125971
 _______________________________________________________________
 Fermi energy                               :         0.51689628
 Kinetic energy                             :        75.41218446
 Coulomb energy                             :      -141.12396168
 Exchange energy                            :       -10.07652223
 Correlation energy                         :        -0.50296026

 DOS at Fermi energy (states/Ha/cell)       :         0.00000000

 Electron charges :
     core                                   :         4.00000000
     core leakage                           :         0.00057596
     valence                                :         8.00000000
     interstitial                           :         4.05200856
     charge in muffin-tin spheres :
                  atom     1     C          :         3.97399572
                  atom     2     C          :         3.97399572
     total charge in muffin-tins            :         7.94799144
     total charge                           :        12.00000000

 Estimated fundamental gap                  :         0.15982984
        valence-band maximum at    1      0.0000  0.0000  0.0000
     conduction-band minimum at   10      0.3333  0.3333  0.0000

 Wall time (seconds)                        :        16.79

 RMS change in effective potential (target) :   1.76582      ( 0.100000E-05)
 Absolute change in total energy   (target) :  0.241725      ( 0.100000E-05)
 Charge distance                   (target) :  0.572978E-02  ( 0.100000E-04)
 Abs. change in max-nonIBS-force   (target) :   0.00000      ( 0.500000E-04)

++++++++++++++++++++++++++++++++++++++++++++++++++++++++++++++++++++++++++++++++
| SCF iteration number :    4                                                  +
++++++++++++++++++++++++++++++++++++++++++++++++++++++++++++++++++++++++++++++++
 Total energy                               :       -76.02568270
 _______________________________________________________________
 Fermi energy                               :         0.52865880
 Kinetic energy                             :        75.56925317
 Coulomb energy                             :      -141.03153862
 Exchange energy                            :       -10.05907636
 Correlation energy                         :        -0.50432089

 DOS at Fermi energy (states/Ha/cell)       :         0.00000000

 Electron charges :
     core                                   :         4.00000000
     core leakage                           :         0.00057481
     valence                                :         8.00000000
     interstitial                           :         4.09596747
     charge in muffin-tin spheres :
                  atom     1     C          :         3.95201626
                  atom     2     C          :         3.95201626
     total charge in muffin-tins            :         7.90403253
     total charge                           :        12.00000000

 Estimated fundamental gap                  :         0.14887092
        valence-band maximum at    1      0.0000  0.0000  0.0000
     conduction-band minimum at   10      0.3333  0.3333  0.0000

 Wall time (seconds)                        :        22.07

 RMS change in effective potential (target) :  0.450070E-01  ( 0.100000E-05)
 Absolute change in total energy   (target) :  0.265577      ( 0.100000E-05)
 Charge distance                   (target) :  0.870701E-02  ( 0.100000E-04)
 Abs. change in max-nonIBS-force   (target) :   0.00000      ( 0.500000E-04)

++++++++++++++++++++++++++++++++++++++++++++++++++++++++++++++++++++++++++++++++
| SCF iteration number :    5                                                  +
++++++++++++++++++++++++++++++++++++++++++++++++++++++++++++++++++++++++++++++++
 Total energy                               :       -75.83374589
 _______________________________________________________________
 Fermi energy                               :         0.53439107
 Kinetic energy                             :        75.66404799
 Coulomb energy                             :      -140.94357673
 Exchange energy                            :       -10.04934844
 Correlation energy                         :        -0.50486872

 DOS at Fermi energy (states/Ha/cell)       :         0.00000000

 Electron charges :
     core                                   :         4.00000000
     core leakage                           :         0.00057953
     valence                                :         8.00000000
     interstitial                           :         4.11466016
     charge in muffin-tin spheres :
                  atom     1     C          :         3.94266992
                  atom     2     C          :         3.94266992
     total charge in muffin-tins            :         7.88533984
     total charge                           :        12.00000000

 Estimated fundamental gap                  :         0.14501842
        valence-band maximum at    1      0.0000  0.0000  0.0000
     conduction-band minimum at   10      0.3333  0.3333  0.0000

 Wall time (seconds)                        :        27.35

 RMS change in effective potential (target) :  0.228784E-01  ( 0.100000E-05)
 Absolute change in total energy   (target) :  0.191937      ( 0.100000E-05)
 Charge distance                   (target) :  0.342436E-02  ( 0.100000E-04)
 Abs. change in max-nonIBS-force   (target) :   0.00000      ( 0.500000E-04)

++++++++++++++++++++++++++++++++++++++++++++++++++++++++++++++++++++++++++++++++
| SCF iteration number :    6                                                  +
++++++++++++++++++++++++++++++++++++++++++++++++++++++++++++++++++++++++++++++++
 Total energy                               :       -75.89208311
 _______________________________________________________________
 Fermi energy                               :         0.53268681
 Kinetic energy                             :        75.63578008
 Coulomb energy                             :      -140.97079971
 Exchange energy                            :       -10.05236579
 Correlation energy                         :        -0.50469770

 DOS at Fermi energy (states/Ha/cell)       :         0.00000000

 Electron charges :
     core                                   :         4.00000000
     core leakage                           :         0.00057809
     valence                                :         8.00000000
     interstitial                           :         4.10886404
     charge in muffin-tin spheres :
                  atom     1     C          :         3.94556798
                  atom     2     C          :         3.94556798
     total charge in muffin-tins            :         7.89113596
     total charge                           :        12.00000000

 Estimated fundamental gap                  :         0.14622751
        valence-band maximum at    1      0.0000  0.0000  0.0000
     conduction-band minimum at   10      0.3333  0.3333  0.0000

 Wall time (seconds)                        :        32.63

 RMS change in effective potential (target) :  0.349468E-03  ( 0.100000E-05)
 Absolute change in total energy   (target) :  0.583372E-01  ( 0.100000E-05)
 Charge distance                   (target) :  0.106513E-02  ( 0.100000E-04)
 Abs. change in max-nonIBS-force   (target) :   0.00000      ( 0.500000E-04)

++++++++++++++++++++++++++++++++++++++++++++++++++++++++++++++++++++++++++++++++
| SCF iteration number :    7                                                  +
++++++++++++++++++++++++++++++++++++++++++++++++++++++++++++++++++++++++++++++++
 Total energy                               :       -75.89346468
 _______________________________________________________________
 Fermi energy                               :         0.53264574
 Kinetic energy                             :        75.63507236
 Coulomb energy                             :      -140.97141256
 Exchange energy                            :       -10.05243019
 Correlation energy                         :        -0.50469428

 DOS at Fermi energy (states/Ha/cell)       :         0.00000000

 Electron charges :
     core                                   :         4.00000000
     core leakage                           :         0.00057805
     valence                                :         8.00000000
     interstitial                           :         4.10874300
     charge in muffin-tin spheres :
                  atom     1     C          :         3.94562850
                  atom     2     C          :         3.94562850
     total charge in muffin-tins            :         7.89125700
     total charge                           :        12.00000000

 Estimated fundamental gap                  :         0.14625051
        valence-band maximum at    1      0.0000  0.0000  0.0000
     conduction-band minimum at   10      0.3333  0.3333  0.0000

 Wall time (seconds)                        :        37.94

 RMS change in effective potential (target) :  0.644444E-04  ( 0.100000E-05)
 Absolute change in total energy   (target) :  0.138157E-02  ( 0.100000E-05)
 Charge distance                   (target) :  0.216128E-04  ( 0.100000E-04)
 Abs. change in max-nonIBS-force   (target) :   0.00000      ( 0.500000E-04)

++++++++++++++++++++++++++++++++++++++++++++++++++++++++++++++++++++++++++++++++
| SCF iteration number :    8                                                  +
++++++++++++++++++++++++++++++++++++++++++++++++++++++++++++++++++++++++++++++++
 Total energy                               :       -75.89335269
 _______________________________________________________________
 Fermi energy                               :         0.53264853
 Kinetic energy                             :        75.63512390
 Coulomb energy                             :      -140.97135728
 Exchange energy                            :       -10.05242476
 Correlation energy                         :        -0.50469454

 DOS at Fermi energy (states/Ha/cell)       :         0.00000000

 Electron charges :
     core                                   :         4.00000000
     core leakage                           :         0.00057805
     valence                                :         8.00000000
     interstitial                           :         4.10875242
     charge in muffin-tin spheres :
                  atom     1     C          :         3.94562379
                  atom     2     C          :         3.94562379
     total charge in muffin-tins            :         7.89124758
     total charge                           :        12.00000000

 Estimated fundamental gap                  :         0.14624879
        valence-band maximum at    1      0.0000  0.0000  0.0000
     conduction-band minimum at   10      0.3333  0.3333  0.0000

 Wall time (seconds)                        :        43.23

 RMS change in effective potential (target) :  0.447060E-05  ( 0.100000E-05)
 Absolute change in total energy   (target) :  0.111991E-03  ( 0.100000E-05)
 Charge distance                   (target) :  0.165539E-05  ( 0.100000E-04)
 Abs. change in max-nonIBS-force   (target) :   0.00000      ( 0.500000E-04)

++++++++++++++++++++++++++++++++++++++++++++++++++++++++++++++++++++++++++++++++
| SCF iteration number :    9                                                  +
++++++++++++++++++++++++++++++++++++++++++++++++++++++++++++++++++++++++++++++++
 Total energy                               :       -75.89334879
 _______________________________________________________________
 Fermi energy                               :         0.53264873
 Kinetic energy                             :        75.63512672
 Coulomb energy                             :      -140.97135639
 Exchange energy                            :       -10.05242456
 Correlation energy                         :        -0.50469456

 DOS at Fermi energy (states/Ha/cell)       :         0.00000000

 Electron charges :
     core                                   :         4.00000000
     core leakage                           :         0.00057805
     valence                                :         8.00000000
     interstitial                           :         4.10875297
     charge in muffin-tin spheres :
                  atom     1     C          :         3.94562351
                  atom     2     C          :         3.94562351
     total charge in muffin-tins            :         7.89124703
     total charge                           :        12.00000000

 Estimated fundamental gap                  :         0.14624865
        valence-band maximum at    1      0.0000  0.0000  0.0000
     conduction-band minimum at   10      0.3333  0.3333  0.0000

 Wall time (seconds)                        :        48.55

 RMS change in effective potential (target) :  0.574233E-06  ( 0.100000E-05)
 Absolute change in total energy   (target) :  0.389395E-05  ( 0.100000E-05)
 Charge distance                   (target) :  0.111179E-06  ( 0.100000E-04)
 Abs. change in max-nonIBS-force   (target) :   0.00000      ( 0.500000E-04)

++++++++++++++++++++++++++++++++++++++++++++++++++++++++++++++++++++++++++++++++
| SCF iteration number :   10                                                  +
++++++++++++++++++++++++++++++++++++++++++++++++++++++++++++++++++++++++++++++++
 Total energy                               :       -75.89334986
 _______________________________________________________________
 Fermi energy                               :         0.53264869
 Kinetic energy                             :        75.63512608
 Coulomb energy                             :      -140.97135676
 Exchange energy                            :       -10.05242462
 Correlation energy                         :        -0.50469456

 DOS at Fermi energy (states/Ha/cell)       :         0.00000000

 Electron charges :
     core                                   :         4.00000000
     core leakage                           :         0.00057805
     valence                                :         8.00000000
     interstitial                           :         4.10875284
     charge in muffin-tin spheres :
                  atom     1     C          :         3.94562358
                  atom     2     C          :         3.94562358
     total charge in muffin-tins            :         7.89124716
     total charge                           :        12.00000000

 Estimated fundamental gap                  :         0.14624869
        valence-band maximum at    1      0.0000  0.0000  0.0000
     conduction-band minimum at   10      0.3333  0.3333  0.0000

 Wall time (seconds)                        :        53.85

 RMS change in effective potential (target) :  0.377676E-07  ( 0.100000E-05)
 Absolute change in total energy   (target) :  0.106759E-05  ( 0.100000E-05)
 Charge distance                   (target) :  0.262905E-07  ( 0.100000E-04)
 Abs. change in max-nonIBS-force   (target) :   0.00000      ( 0.500000E-04)

++++++++++++++++++++++++++++++++++++++++++++++++++++++++++++++++++++++++++++++++
| SCF iteration number :   11                                                  +
++++++++++++++++++++++++++++++++++++++++++++++++++++++++++++++++++++++++++++++++
 Total energy                               :       -75.89334977
 _______________________________________________________________
 Fermi energy                               :         0.53264869
 Kinetic energy                             :        75.63512613
 Coulomb energy                             :      -140.97135673
 Exchange energy                            :       -10.05242461
 Correlation energy                         :        -0.50469456

 DOS at Fermi energy (states/Ha/cell)       :         0.00000000

 Electron charges :
     core                                   :         4.00000000
     core leakage                           :         0.00057805
     valence                                :         8.00000000
     interstitial                           :         4.10875285
     charge in muffin-tin spheres :
                  atom     1     C          :         3.94562358
                  atom     2     C          :         3.94562358
     total charge in muffin-tins            :         7.89124715
     total charge                           :        12.00000000

 Estimated fundamental gap                  :         0.14624868
        valence-band maximum at    1      0.0000  0.0000  0.0000
     conduction-band minimum at   10      0.3333  0.3333  0.0000

 Wall time (seconds)                        :        59.17

 RMS change in effective potential (target) :  0.107283E-07  ( 0.100000E-05)
 Absolute change in total energy   (target) :  0.902063E-07  ( 0.100000E-05)
 Charge distance                   (target) :  0.211361E-08  ( 0.100000E-04)
 Abs. change in max-nonIBS-force   (target) :   0.00000      ( 0.500000E-04)

++++++++++++++++++++++++++++++++++++++++++++++++++++++++++++++++++++++++++++++++
| SCF iteration number :   12                                                  +
++++++++++++++++++++++++++++++++++++++++++++++++++++++++++++++++++++++++++++++++
 Total energy                               :       -75.89334976
 _______________________________________________________________
 Fermi energy                               :         0.53264869
 Kinetic energy                             :        75.63512614
 Coulomb energy                             :      -140.97135672
 Exchange energy                            :       -10.05242461
 Correlation energy                         :        -0.50469456

 DOS at Fermi energy (states/Ha/cell)       :         0.00000000

 Electron charges :
     core                                   :         4.00000000
     core leakage                           :         0.00057805
     valence                                :         8.00000000
     interstitial                           :         4.10875285
     charge in muffin-tin spheres :
                  atom     1     C          :         3.94562358
                  atom     2     C          :         3.94562358
     total charge in muffin-tins            :         7.89124715
     total charge                           :        12.00000000

 Estimated fundamental gap                  :         0.14624868
        valence-band maximum at    1      0.0000  0.0000  0.0000
     conduction-band minimum at   10      0.3333  0.3333  0.0000

 Wall time (seconds)                        :        64.48

 RMS change in effective potential (target) :  0.489515E-08  ( 0.100000E-05)
 Absolute change in total energy   (target) :  0.133392E-07  ( 0.100000E-05)
 Charge distance                   (target) :  0.314262E-09  ( 0.100000E-04)
 Abs. change in max-nonIBS-force   (target) :   0.00000      ( 0.500000E-04)
                                                                                
++++++++++++++++++++++++++++++++++++++++++++++++++++++++++++++++++++++++++++++++
| Convergency criteria checked for the last 2 iterations                       +
| Convergence targets achieved. Performing final SCF iteration                 +
++++++++++++++++++++++++++++++++++++++++++++++++++++++++++++++++++++++++++++++++
 Total energy                               :       -75.89334976
 _______________________________________________________________
 Fermi energy                               :         0.53264869
 Kinetic energy                             :        75.63512613
 Coulomb energy                             :      -140.97135672
 Exchange energy                            :       -10.05242461
 Correlation energy                         :        -0.50469456

 DOS at Fermi energy (states/Ha/cell)       :         0.00000000

 Electron charges :
     core                                   :         4.00000000
     core leakage                           :         0.00057805
     valence                                :         8.00000000
     interstitial                           :         4.10875285
     charge in muffin-tin spheres :
                  atom     1     C          :         3.94562358
                  atom     2     C          :         3.94562358
     total charge in muffin-tins            :         7.89124715
     total charge                           :        12.00000000

 Estimated fundamental gap                  :         0.14624868
        valence-band maximum at    1      0.0000  0.0000  0.0000
     conduction-band minimum at   10      0.3333  0.3333  0.0000

++++++++++++++++++++++++++++++++++++++++++++++++++++++++++++++++++++++++++++++++
| Self-consistent loop stopped                                                 +
++++++++++++++++++++++++++++++++++++++++++++++++++++++++++++++++++++++++++++++++
 STATE.OUT is written

--------------------------------------------------------------------------------
| Writing atomic positions and forces                                          -
--------------------------------------------------------------------------------

 Atomic positions (lattice) :
 atom     1   C  :     0.00000000    0.00000000    0.00000000
 atom     2   C  :     0.25000000    0.25000000    0.25000000

 Total atomic forces including IBS (cartesian) :
 atom     1   C  :    -0.00000000    0.00000000   -0.00000000
 atom     2   C  :     0.00000000   -0.00000000    0.00000000

 Atomic force components including IBS (cartesian) :
 atom     1   C  :     0.00000000    0.00000000    0.00000000   HF force
                 :    -0.00000000    0.00000000    0.00000000   core correction
                 :    -0.00000000   -0.00000000    0.00000000   IBS correction
 atom     2   C  :     0.00000000   -0.00000000   -0.00000000   HF force
                 :     0.00000000   -0.00000000    0.00000000   core correction
                 :     0.00000000    0.00000000    0.00000000   IBS correction

********************************************************************************
| Groundstate module stopped                                                   *
********************************************************************************

********************************************************************************
| Structure-optimization module started                                        *
********************************************************************************
 Output level for this task is set to normal

 Maximum displacement tau_BFGS   is         :         0.3000
 Maximum displacement tau_newton is         :         0.2000
 Maximum force target reached already at the initial configuration

********************************************************************************
| Structure-optimization module stopped                                        *
********************************************************************************

 Total time spent (seconds)                 :        70.67

================================================================================
| EXCITING CARBON stopped                                                      =
================================================================================
