================================================================================
| EXCITING BORON started                                                       =
| version hash id:                                                             =
| MPI version using     16 processor(s)                                        =
|                                                                              =
| Date (DD-MM-YYYY) : 12-08-2015                                               =
| Time (hh:mm:ss)   : 22:35:31                                                 =
|                                                                              =
| All units are atomic (Hartree, Bohr, etc.)                                   =
================================================================================
 
********************************************************************************
| Structural optimisation starting from atomic densities                       *
********************************************************************************
 
++++++++++++++++++++++++++++++++++++++++++++++++++++++++++++++++++++++++++++++++
| Starting initialization                                                      +
++++++++++++++++++++++++++++++++++++++++++++++++++++++++++++++++++++++++++++++++
 
 Lattice vectors (cartesian) :
      2.4405781897      4.0304822292      0.0000000000
     -2.4405781897      4.0304822292      0.0000000000
      0.0000000000      0.0000000000      6.5761020000
 
 Reciprocal lattice vectors (cartesian) :
      1.2872329462      0.7794582571      0.0000000000
     -1.2872329462      0.7794582571      0.0000000000
      0.0000000000      0.0000000000      0.9554573982
 
 Unit cell volume                           :     129.3743774481
 Brillouin zone volume                      :       1.9173055619
 
 Species :    1 (C)
     parameters loaded from                 :    C.xml
     name                                   :    carbon
     nuclear charge                         :      -6.00000000
     electronic charge                      :       6.00000000
     atomic mass                            :   21894.16673000
     muffin-tin radius                      :       1.20000000
     # of radial points in muffin-tin       :     250
 
     atomic positions (lattice) :
       1 :   0.00000000  0.00000000  0.00000000
       2 :   0.33333333  0.33333333  0.00000000
 
 Total number of atoms per unit cell        :       2
 
 Spin treatment                             :    spin-unpolarised
 
 Number of Bravais lattice symmetries       :       8
 Number of crystal symmetries               :       8
 
 k-point grid                               :      34   34   24
 Total number of k-points                   :    3991
 k-point set is reduced with crystal symmetries
 
 R^MT_min * |G+k|_max (rgkmax)              :       8.00000000
 Species with R^MT_min                      :       1 (C)
 Maximum |G+k| for APW functions            :       6.66666667
 Maximum |G| for potential and density      :      20.00000000
 
 G-vector grid sizes                        :      30    30    45
 Total number of G-vectors                  :   17439
 
 Maximum angular momentum used for
     APW functions                          :       8
     computing H and O matrix elements      :       8
     potential and density                  :       8
     inner part of muffin-tin               :       2
 
 Total nuclear charge                       :     -12.00000000
 Total electronic charge                    :      12.00000000
 Total core charge                          :       4.00000000
 Total valence charge                       :       8.00000000
 
 Number of empty states                     :       5
 Total number of valence states             :      10
 
 Maximum Hamiltonian size                   :     682
 Maximum number of plane-waves              :     674
 Total number of local-orbitals             :       8
 
 Exchange-correlation type                  :      20
     Perdew-Burke-Ernzerhof, Phys. Rev. Lett. 77, 3865 (1996)
     Generalised gradient approximation (GGA)
 
 Smearing scheme                            :    Gaussian
 Smearing width                             :       0.01000000
 
 Using multisecant Broyden potential mixing
 
++++++++++++++++++++++++++++++++++++++++++++++++++++++++++++++++++++++++++++++++
| Ending initialization                                                        +
++++++++++++++++++++++++++++++++++++++++++++++++++++++++++++++++++++++++++++++++
 
********************************************************************************
| Groundstate module started                                                   *
********************************************************************************
 Output level for this task is set to normal
 
++++++++++++++++++++++++++++++++++++++++++++++++++++++++++++++++++++++++++++++++
| Self-consistent loop started                                                 +
++++++++++++++++++++++++++++++++++++++++++++++++++++++++++++++++++++++++++++++++
 Density and potential initialised from atomic data
 
 
++++++++++++++++++++++++++++++++++++++++++++++++++++++++++++++++++++++++++++++++
| SCF iteration number :    1                                                  +
++++++++++++++++++++++++++++++++++++++++++++++++++++++++++++++++++++++++++++++++
 Total energy                               :       -78.08655316
 _______________________________________________________________
 Fermi energy                               :         0.15036908
 Kinetic energy                             :        74.46785360
 Coulomb energy                             :      -141.69769716
 Exchange energy                            :       -10.44122432
 Correlation energy                         :        -0.41548528
 
 DOS at Fermi energy (states/Ha/cell)       :         1.14704527
 
 Electron charges :
     core                                   :         4.00000000
     core leakage                           :         0.00127808
     valence                                :         8.00000000
     interstitial                           :         4.65315619
     charge in muffin-tin spheres :
                  atom     1     C          :         3.67342190
                  atom     2     C          :         3.67342190
     total charge in muffin-tins            :         7.34684381
     total charge                           :        12.00000000
 
 Wall time (seconds)                        :       108.76
 
++++++++++++++++++++++++++++++++++++++++++++++++++++++++++++++++++++++++++++++++
| SCF iteration number :    2                                                  +
++++++++++++++++++++++++++++++++++++++++++++++++++++++++++++++++++++++++++++++++
 Total energy                               :       -77.39203873
 _______________________________________________________________
 Fermi energy                               :         0.16975613
 Kinetic energy                             :        74.93461624
 Coulomb energy                             :      -141.50340213
 Exchange energy                            :       -10.40691595
 Correlation energy                         :        -0.41633690
 
 DOS at Fermi energy (states/Ha/cell)       :         1.22470612
 
 Electron charges :
     core                                   :         4.00000000
     core leakage                           :         0.00128855
     valence                                :         8.00000000
     interstitial                           :         4.71032416
     charge in muffin-tin spheres :
                  atom     1     C          :         3.64483792
                  atom     2     C          :         3.64483792
     total charge in muffin-tins            :         7.28967584
     total charge                           :        12.00000000
 
 Wall time (seconds)                        :       217.16
 
 RMS change in effective potential (target) :   1.59887      ( 0.100000E-05)
 Absolute change in total energy   (target) :  0.694514      ( 0.100000E-06)
 Charge distance                   (target) :  0.118605E-01  ( 0.100000E-04)
 Abs. change in max-nonIBS-force   (target) :  0.496162E-01  ( 0.250000E-05)
 
++++++++++++++++++++++++++++++++++++++++++++++++++++++++++++++++++++++++++++++++
| SCF iteration number :    3                                                  +
++++++++++++++++++++++++++++++++++++++++++++++++++++++++++++++++++++++++++++++++
 Total energy                               :       -76.90187984
 _______________________________________________________________
 Fermi energy                               :         0.18299869
 Kinetic energy                             :        75.26158869
 Coulomb energy                             :      -141.36427346
 Exchange energy                            :       -10.38219695
 Correlation energy                         :        -0.41699811
 
 DOS at Fermi energy (states/Ha/cell)       :         1.28719348
 
 Electron charges :
     core                                   :         4.00000000
     core leakage                           :         0.00129519
     valence                                :         8.00000000
     interstitial                           :         4.75176071
     charge in muffin-tin spheres :
                  atom     1     C          :         3.62411964
                  atom     2     C          :         3.62411964
     total charge in muffin-tins            :         7.24823929
     total charge                           :        12.00000000
 
 Wall time (seconds)                        :       326.27
 
 RMS change in effective potential (target) :   1.17842      ( 0.100000E-05)
 Absolute change in total energy   (target) :  0.490159      ( 0.100000E-06)
 Charge distance                   (target) :  0.869939E-02  ( 0.100000E-04)
 Abs. change in max-nonIBS-force   (target) :  0.210530E-01  ( 0.250000E-05)
 
++++++++++++++++++++++++++++++++++++++++++++++++++++++++++++++++++++++++++++++++
| SCF iteration number :    4                                                  +
++++++++++++++++++++++++++++++++++++++++++++++++++++++++++++++++++++++++++++++++
 Total energy                               :       -76.69437003
 _______________________________________________________________
 Fermi energy                               :         0.18819942
 Kinetic energy                             :        75.41490628
 Coulomb energy                             :      -141.32280738
 Exchange energy                            :       -10.36905411
 Correlation energy                         :        -0.41741483
 
 DOS at Fermi energy (states/Ha/cell)       :         1.32823939
 
 Electron charges :
     core                                   :         4.00000000
     core leakage                           :         0.00128722
     valence                                :         8.00000000
     interstitial                           :         4.77782355
     charge in muffin-tin spheres :
                  atom     1     C          :         3.61108823
                  atom     2     C          :         3.61108823
     total charge in muffin-tins            :         7.22217645
     total charge                           :        12.00000000
 
 Wall time (seconds)                        :       434.66
 
 RMS change in effective potential (target) :  0.593191E-01  ( 0.100000E-05)
 Absolute change in total energy   (target) :  0.207510      ( 0.100000E-06)
 Charge distance                   (target) :  0.603744E-02  ( 0.100000E-04)
 Abs. change in max-nonIBS-force   (target) :  0.253463E-01  ( 0.250000E-05)
 
++++++++++++++++++++++++++++++++++++++++++++++++++++++++++++++++++++++++++++++++
| SCF iteration number :    5                                                  +
++++++++++++++++++++++++++++++++++++++++++++++++++++++++++++++++++++++++++++++++
 Total energy                               :       -75.94716771
 _______________________________________________________________
 Fermi energy                               :         0.20748369
 Kinetic energy                             :        75.89068940
 Coulomb energy                             :      -141.08706082
 Exchange energy                            :       -10.33233193
 Correlation energy                         :        -0.41846436
 
 DOS at Fermi energy (states/Ha/cell)       :         1.42903329
 
 Electron charges :
     core                                   :         4.00000000
     core leakage                           :         0.00130513
     valence                                :         8.00000000
     interstitial                           :         4.83668924
     charge in muffin-tin spheres :
                  atom     1     C          :         3.58165538
                  atom     2     C          :         3.58165538
     total charge in muffin-tins            :         7.16331076
     total charge                           :        12.00000000
 
 Wall time (seconds)                        :       543.48
 
 RMS change in effective potential (target) :  0.316010E-01  ( 0.100000E-05)
 Absolute change in total energy   (target) :  0.747202      ( 0.100000E-06)
 Charge distance                   (target) :  0.121594E-01  ( 0.100000E-04)
 Abs. change in max-nonIBS-force   (target) :  0.111794E-01  ( 0.250000E-05)
 
++++++++++++++++++++++++++++++++++++++++++++++++++++++++++++++++++++++++++++++++
| SCF iteration number :    6                                                  +
++++++++++++++++++++++++++++++++++++++++++++++++++++++++++++++++++++++++++++++++
 Total energy                               :       -76.20046674
 _______________________________________________________________
 Fermi energy                               :         0.20107104
 Kinetic energy                             :        75.72990244
 Coulomb energy                             :      -141.16737770
 Exchange energy                            :       -10.34489092
 Correlation energy                         :        -0.41810056
 
 DOS at Fermi energy (states/Ha/cell)       :         1.39315988
 
 Electron charges :
     core                                   :         4.00000000
     core leakage                           :         0.00129921
     valence                                :         8.00000000
     interstitial                           :         4.81651763
     charge in muffin-tin spheres :
                  atom     1     C          :         3.59174118
                  atom     2     C          :         3.59174118
     total charge in muffin-tins            :         7.18348237
     total charge                           :        12.00000000
 
 Wall time (seconds)                        :       651.79
 
 RMS change in effective potential (target) :  0.528331E-03  ( 0.100000E-05)
 Absolute change in total energy   (target) :  0.253299      ( 0.100000E-06)
 Charge distance                   (target) :  0.419785E-02  ( 0.100000E-04)
 Abs. change in max-nonIBS-force   (target) :  0.794515E-02  ( 0.250000E-05)
 
++++++++++++++++++++++++++++++++++++++++++++++++++++++++++++++++++++++++++++++++
| SCF iteration number :    7                                                  +
++++++++++++++++++++++++++++++++++++++++++++++++++++++++++++++++++++++++++++++++
 Total energy                               :       -76.20234616
 _______________________________________________________________
 Fermi energy                               :         0.20101838
 Kinetic energy                             :        75.72892043
 Coulomb energy                             :      -141.16819089
 Exchange energy                            :       -10.34497884
 Correlation energy                         :        -0.41809687
 
 DOS at Fermi energy (states/Ha/cell)       :         1.39309418
 
 Electron charges :
     core                                   :         4.00000000
     core leakage                           :         0.00129909
     valence                                :         8.00000000
     interstitial                           :         4.81638640
     charge in muffin-tin spheres :
                  atom     1     C          :         3.59180680
                  atom     2     C          :         3.59180680
     total charge in muffin-tins            :         7.18361360
     total charge                           :        12.00000000
 
 Wall time (seconds)                        :       762.37
 
 RMS change in effective potential (target) :  0.138456E-03  ( 0.100000E-05)
 Absolute change in total energy   (target) :  0.187942E-02  ( 0.100000E-06)
 Charge distance                   (target) :  0.267268E-04  ( 0.100000E-04)
 Abs. change in max-nonIBS-force   (target) :  0.135571E-03  ( 0.250000E-05)
 
++++++++++++++++++++++++++++++++++++++++++++++++++++++++++++++++++++++++++++++++
| SCF iteration number :    8                                                  +
++++++++++++++++++++++++++++++++++++++++++++++++++++++++++++++++++++++++++++++++
 Total energy                               :       -76.20276302
 _______________________________________________________________
 Fermi energy                               :         0.20100734
 Kinetic energy                             :        75.72859200
 Coulomb energy                             :      -141.16826070
 Exchange energy                            :       -10.34499779
 Correlation energy                         :        -0.41809653
 
 DOS at Fermi energy (states/Ha/cell)       :         1.39300215
 
 Electron charges :
     core                                   :         4.00000000
     core leakage                           :         0.00129910
     valence                                :         8.00000000
     interstitial                           :         4.81635310
     charge in muffin-tin spheres :
                  atom     1     C          :         3.59182345
                  atom     2     C          :         3.59182345
     total charge in muffin-tins            :         7.18364690
     total charge                           :        12.00000000
 
 Wall time (seconds)                        :       870.85
 
 RMS change in effective potential (target) :  0.152213E-04  ( 0.100000E-05)
 Absolute change in total energy   (target) :  0.416861E-03  ( 0.100000E-06)
 Charge distance                   (target) :  0.901827E-05  ( 0.100000E-04)
 Abs. change in max-nonIBS-force   (target) :  0.336034E-04  ( 0.250000E-05)
 
++++++++++++++++++++++++++++++++++++++++++++++++++++++++++++++++++++++++++++++++
| SCF iteration number :    9                                                  +
++++++++++++++++++++++++++++++++++++++++++++++++++++++++++++++++++++++++++++++++
 Total energy                               :       -76.20261309
 _______________________________________________________________
 Fermi energy                               :         0.20101112
 Kinetic energy                             :        75.72868908
 Coulomb energy                             :      -141.16821489
 Exchange energy                            :       -10.34499054
 Correlation energy                         :        -0.41809673
 
 DOS at Fermi energy (states/Ha/cell)       :         1.39302449
 
 Electron charges :
     core                                   :         4.00000000
     core leakage                           :         0.00129910
     valence                                :         8.00000000
     interstitial                           :         4.81636478
     charge in muffin-tin spheres :
                  atom     1     C          :         3.59181761
                  atom     2     C          :         3.59181761
     total charge in muffin-tins            :         7.18363522
     total charge                           :        12.00000000
 
 Wall time (seconds)                        :       979.42
 
 RMS change in effective potential (target) :  0.170753E-05  ( 0.100000E-05)
 Absolute change in total energy   (target) :  0.149933E-03  ( 0.100000E-06)
 Charge distance                   (target) :  0.253212E-05  ( 0.100000E-04)
 Abs. change in max-nonIBS-force   (target) :  0.570141E-05  ( 0.250000E-05)
 
++++++++++++++++++++++++++++++++++++++++++++++++++++++++++++++++++++++++++++++++
| SCF iteration number :   10                                                  +
++++++++++++++++++++++++++++++++++++++++++++++++++++++++++++++++++++++++++++++++
 Total energy                               :       -76.20261171
 _______________________________________________________________
 Fermi energy                               :         0.20101117
 Kinetic energy                             :        75.72869045
 Coulomb energy                             :      -141.16821496
 Exchange energy                            :       -10.34499047
 Correlation energy                         :        -0.41809674
 
 DOS at Fermi energy (states/Ha/cell)       :         1.39302444
 
 Electron charges :
     core                                   :         4.00000000
     core leakage                           :         0.00129910
     valence                                :         8.00000000
     interstitial                           :         4.81636493
     charge in muffin-tin spheres :
                  atom     1     C          :         3.59181754
                  atom     2     C          :         3.59181754
     total charge in muffin-tins            :         7.18363507
     total charge                           :        12.00000000
 
 Wall time (seconds)                        :      1087.80
 
 RMS change in effective potential (target) :  0.119466E-06  ( 0.100000E-05)
 Absolute change in total energy   (target) :  0.137931E-05  ( 0.100000E-06)
 Charge distance                   (target) :  0.278727E-06  ( 0.100000E-04)
 Abs. change in max-nonIBS-force   (target) :  0.382090E-05  ( 0.250000E-05)
 
++++++++++++++++++++++++++++++++++++++++++++++++++++++++++++++++++++++++++++++++
| SCF iteration number :   11                                                  +
++++++++++++++++++++++++++++++++++++++++++++++++++++++++++++++++++++++++++++++++
 Total energy                               :       -76.20261192
 _______________________________________________________________
 Fermi energy                               :         0.20101117
 Kinetic energy                             :        75.72869034
 Coulomb energy                             :      -141.16821504
 Exchange energy                            :       -10.34499049
 Correlation energy                         :        -0.41809673
 
 DOS at Fermi energy (states/Ha/cell)       :         1.39302448
 
 Electron charges :
     core                                   :         4.00000000
     core leakage                           :         0.00129910
     valence                                :         8.00000000
     interstitial                           :         4.81636491
     charge in muffin-tin spheres :
                  atom     1     C          :         3.59181755
                  atom     2     C          :         3.59181755
     total charge in muffin-tins            :         7.18363509
     total charge                           :        12.00000000
 
 Wall time (seconds)                        :      1196.30
 
 RMS change in effective potential (target) :  0.221873E-07  ( 0.100000E-05)
 Absolute change in total energy   (target) :  0.207285E-06  ( 0.100000E-06)
 Charge distance                   (target) :  0.477031E-07  ( 0.100000E-04)
 Abs. change in max-nonIBS-force   (target) :  0.792067E-06  ( 0.250000E-05)
 
++++++++++++++++++++++++++++++++++++++++++++++++++++++++++++++++++++++++++++++++
| SCF iteration number :   12                                                  +
++++++++++++++++++++++++++++++++++++++++++++++++++++++++++++++++++++++++++++++++
 Total energy                               :       -76.20261195
 _______________________________________________________________
 Fermi energy                               :         0.20101117
 Kinetic energy                             :        75.72869033
 Coulomb energy                             :      -141.16821505
 Exchange energy                            :       -10.34499049
 Correlation energy                         :        -0.41809673
 
 DOS at Fermi energy (states/Ha/cell)       :         1.39302448
 
 Electron charges :
     core                                   :         4.00000000
     core leakage                           :         0.00129910
     valence                                :         8.00000000
     interstitial                           :         4.81636490
     charge in muffin-tin spheres :
                  atom     1     C          :         3.59181755
                  atom     2     C          :         3.59181755
     total charge in muffin-tins            :         7.18363510
     total charge                           :        12.00000000
 
 Wall time (seconds)                        :      1303.79
 
 RMS change in effective potential (target) :  0.569507E-08  ( 0.100000E-05)
 Absolute change in total energy   (target) :  0.280884E-07  ( 0.100000E-06)
 Charge distance                   (target) :  0.473402E-09  ( 0.100000E-04)
 Abs. change in max-nonIBS-force   (target) :  0.633650E-08  ( 0.250000E-05)
 
++++++++++++++++++++++++++++++++++++++++++++++++++++++++++++++++++++++++++++++++
| Convergence targets achieved. Performing final SCF iteration                 +
++++++++++++++++++++++++++++++++++++++++++++++++++++++++++++++++++++++++++++++++
 Total energy                               :       -76.21080889
 _______________________________________________________________
 Fermi energy                               :         0.20101117
 Kinetic energy                             :        75.72869032
 Coulomb energy                             :      -141.16821505
 Exchange energy                            :       -10.34499049
 Correlation energy                         :        -0.41809673
 DFT-D2 dispersion correction               :        -0.00819694
 
 DOS at Fermi energy (states/Ha/cell)       :         1.39302448
 
 Electron charges :
     core                                   :         4.00000000
     core leakage                           :         0.00129910
     valence                                :         8.00000000
     interstitial                           :         4.81636490
     charge in muffin-tin spheres :
                  atom     1     C          :         3.59181755
                  atom     2     C          :         3.59181755
     total charge in muffin-tins            :         7.18363510
     total charge                           :        12.00000000
 
++++++++++++++++++++++++++++++++++++++++++++++++++++++++++++++++++++++++++++++++
| Self-consistent loop stopped                                                 +
++++++++++++++++++++++++++++++++++++++++++++++++++++++++++++++++++++++++++++++++
 STATE.OUT is written
 
--------------------------------------------------------------------------------
| Writing atomic positions and forces                                          -
--------------------------------------------------------------------------------
 
 Atomic positions (lattice) :
 atom     1   C  :     0.00000000    0.00000000    0.00000000
 atom     2   C  :     0.33333333    0.33333333    0.00000000
 
 Total atomic forces including IBS (cartesian) :
 atom     1   C  :     0.00000000   -0.00629380    0.00000000
 atom     2   C  :     0.00000000    0.00629380    0.00000000
 
 Atomic force components including IBS (cartesian) :
 atom     1   C  :     0.00000000    0.00695014    0.00000000   HF force
                 :     0.00000000   -0.01329661    0.00000000   core correction
                 :     0.00000000   -0.00019149    0.00000000   IBS correction
                 :     0.00000000    0.00024416    0.00000000   DFT-D2 force
 atom     2   C  :     0.00000000   -0.00695014    0.00000000   HF force
                 :     0.00000000    0.01329661    0.00000000   core correction
                 :     0.00000000    0.00019149    0.00000000   IBS correction
                 :     0.00000000   -0.00024416    0.00000000   DFT-D2 force
 
********************************************************************************
| Groundstate module stopped                                                   *
********************************************************************************
 
********************************************************************************
| Structure-optimization module started                                        *
********************************************************************************
 Output level for this task is set to normal
 
 Maximum displacement tau_BFGS   is         :         0.3000
 Maximum displacement tau_newton is         :         0.8000
 
++++++++++++++++++++++++++++++++++++++++++++++++++++++++++++++++++++++++++++++++
| Use harmonic method for optimizing atomic positions                          +
++++++++++++++++++++++++++++++++++++++++++++++++++++++++++++++++++++++++++++++++
 
--------------------------------------------------------------------------------
| Optimization step 0: Initialize optimization                                 -
--------------------------------------------------------------------------------
 Maximum force magnitude           (target) :         0.00629380  (  0.00001000)
 Total energy at this optimization step     :       -76.21080889
 
 Atomic positions at this step (lattice) :
 atom     1   C  :     0.00000000    0.00000000    0.00000000
 atom     2   C  :     0.33333333    0.33333333    0.00000000
 
 Total atomic forces including IBS (cartesian) :
 atom     1   C  :     0.00000000   -0.00629380    0.00000000
 atom     2   C  :     0.00000000    0.00629380    0.00000000
 
--------------------------------------------------------------------------------
| Optimization step    1    (method = harmonic)                                -
--------------------------------------------------------------------------------
 Number of scf iterations                   :        12  (full newton step)
 Maximum force magnitude           (target) :         0.00129720  (  0.00001000)
 Total energy at this optimization step     :       -76.21084621
 
 Atomic positions at this step (lattice) :
 atom     1   C  :     0.00000000    0.00000000    0.00000000
 atom     2   C  :     0.33458257    0.33458257    0.00000000
 
 Total atomic forces including IBS (cartesian) :
 atom     1   C  :     0.00000000   -0.00129720    0.00000000
 atom     2   C  :     0.00000000    0.00129720    0.00000000
 
 Time spent in this optimization step       :      1372.39 seconds
 
--------------------------------------------------------------------------------
| Optimization step    2    (method = harmonic)                                -
--------------------------------------------------------------------------------
 Number of scf iterations                   :        12  (full harmonic step)
 Maximum force magnitude           (target) :         0.00001090  (  0.00001000)
 Total energy at this optimization step     :       -76.21084770
 
 Atomic positions at this step (lattice) :
 atom     1   C  :     0.00000000    0.00000000    0.00000000
 atom     2   C  :     0.33490689    0.33490689    0.00000000
 
 Total atomic forces including IBS (cartesian) :
 atom     1   C  :     0.00000000   -0.00001090    0.00000000
 atom     2   C  :     0.00000000    0.00001090    0.00000000
 
 Time spent in this optimization step       :      1372.93 seconds
 
--------------------------------------------------------------------------------
| Optimization step    3    (method = harmonic)                                -
--------------------------------------------------------------------------------
 Number of scf iterations                   :        10  (full harmonic step)
 Maximum force magnitude           (target) :         0.00000002  (  0.00001000)
 Total energy at this optimization step     :       -76.21084770
 
 Atomic positions at this step (lattice) :
 atom     1   C  :     0.00000000    0.00000000    0.00000000
 atom     2   C  :     0.33490964    0.33490964    0.00000000
 
 Total atomic forces including IBS (cartesian) :
 atom     1   C  :     0.00000000   -0.00000002    0.00000000
 atom     2   C  :     0.00000000    0.00000002    0.00000000
 
 Time spent in this optimization step       :      1153.19 seconds
 
++++++++++++++++++++++++++++++++++++++++++++++++++++++++++++++++++++++++++++++++
| Force convergence target achieved                                            +
++++++++++++++++++++++++++++++++++++++++++++++++++++++++++++++++++++++++++++++++
 Total energy                               :       -76.21084770
 _______________________________________________________________
 Fermi energy                               :         0.20102125
 Kinetic energy                             :        75.72626613
 Coulomb energy                             :      -141.16626296
 Exchange energy                            :       -10.34455739
 Correlation energy                         :        -0.41809972
 DFT-D2 dispersion correction               :        -0.00819377
 
 DOS at Fermi energy (states/Ha/cell)       :         1.38937840
 
 Electron charges :
     core                                   :         4.00000000
     core leakage                           :         0.00129898
     valence                                :         8.00000000
     interstitial                           :         4.81756031
     charge in muffin-tin spheres :
                  atom     1     C          :         3.59121985
                  atom     2     C          :         3.59121985
     total charge in muffin-tins            :         7.18243969
     total charge                           :        12.00000000
 
 Optimized atomic positions (lattice) :
 atom     1   C  :     0.00000000    0.00000000    0.00000000
 atom     2   C  :     0.33490964    0.33490964    0.00000000
 
 Total atomic forces including IBS (cartesian) :
 atom     1   C  :     0.00000000   -0.00000002    0.00000000
 atom     2   C  :     0.00000000    0.00000002    0.00000000
 
 Atomic force components including IBS (cartesian) :
 atom     1   C  :     0.00000000    0.01322975    0.00000000   HF force
                 :     0.00000000   -0.01324344    0.00000000   core correction
                 :     0.00000000   -0.00024061    0.00000000   IBS correction
                 :     0.00000000    0.00025428    0.00000000   DFT-D2 force
 atom     2   C  :     0.00000000   -0.01322975    0.00000000   HF force
                 :     0.00000000    0.01324344    0.00000000   core correction
                 :     0.00000000    0.00024061    0.00000000   IBS correction
                 :     0.00000000   -0.00025428    0.00000000   DFT-D2 force
 
********************************************************************************
| Structure-optimization module stopped                                        *
********************************************************************************
 
 Total time spent (seconds)                 :      5399.13
 
================================================================================
| EXCITING BORON stopped                                                       =
================================================================================
