  12   12    1    1
  1.9654038e+02   5.1161700e-10   5.1161700e-10   7.5086500e-10   5.0000000e-16
            1.000000e-04
  CAR
 DOS and projected DOS file by LOBSTER. Energy is shifted such that the Fermi level lies at 0 eV. 
     18.09297815     -61.95705312  1601       8.08672424       1.00000000
-70.04378   0.00000   0.00000
-69.99375   0.00000   0.00000
-69.94371   0.00000   0.00000
-69.89368   0.00000   0.00000
-69.84365   0.00000   0.00000
-69.79362   0.00000   0.00000
-69.74359   0.00000   0.00000
-69.69356   0.00000   0.00000
-69.64353   0.00000   0.00000
-69.59350   0.00000   0.00000
-69.54346   0.00000   0.00000
-69.49343   0.00000   0.00000
-69.44340   0.00000   0.00000
-69.39337   0.00000   0.00000
-69.34334   0.00000   0.00000
-69.29331   0.00000   0.00000
-69.24328   0.00000   0.00000
-69.19325   0.00000   0.00000
-69.14321   0.00000   0.00000
-69.09318   0.00000   0.00000
-69.04315   0.00000   0.00000
-68.99312   0.00000   0.00000
-68.94309   0.00000   0.00000
-68.89306   0.00000   0.00000
-68.84303   0.00000   0.00000
-68.79300   0.00000   0.00000
-68.74296   0.00000   0.00000
-68.69293   0.00000   0.00000
-68.64290   0.00000   0.00000
-68.59287   0.00000   0.00000
-68.54284   0.00000   0.00000
-68.49281   0.00000   0.00000
-68.44278   0.00000   0.00000
-68.39275   0.00000   0.00000
-68.34271   0.00000   0.00000
-68.29268   0.00000   0.00000
-68.24265   0.00000   0.00000
-68.19262   0.00000   0.00000
-68.14259   0.00000   0.00000
-68.09256   0.00000   0.00000
-68.04253   0.00000   0.00000
-67.99250   0.00000   0.00000
-67.94246   0.00000   0.00000
-67.89243   0.00000   0.00000
-67.84240   0.00000   0.00000
-67.79237   0.00000   0.00000
-67.74234   0.00000   0.00000
-67.69231   0.00000   0.00000
-67.64228   0.00000   0.00000
-67.59225   0.00000   0.00000
-67.54221   0.00000   0.00000
-67.49218   0.00000   0.00000
-67.44215   0.00000   0.00000
-67.39212   0.00000   0.00000
-67.34209   0.00000   0.00000
-67.29206   0.00000   0.00000
-67.24203   0.00000   0.00000
-67.19199   0.00000   0.00000
-67.14196   0.00000   0.00000
-67.09193   0.00000   0.00000
-67.04190   0.00000   0.00000
-66.99187   0.00000   0.00000
-66.94184   0.00000   0.00000
-66.89181   0.00000   0.00000
-66.84178   0.00000   0.00000
-66.79174   0.00000   0.00000
-66.74171   0.00000   0.00000
-66.69168   0.00000   0.00000
-66.64165   0.00000   0.00000
-66.59162   0.00000   0.00000
-66.54159   0.00000   0.00000
-66.49156   0.00000   0.00000
-66.44153   0.00000   0.00000
-66.39149   0.00000   0.00000
-66.34146   0.00000   0.00000
-66.29143   0.00000   0.00000
-66.24140   0.00000   0.00000
-66.19137   0.00000   0.00000
-66.14134   0.00000   0.00000
-66.09131   0.00000   0.00000
-66.04128   0.00000   0.00000
-65.99124   0.00000   0.00000
-65.94121   0.00000   0.00000
-65.89118   0.00000   0.00000
-65.84115   0.00000   0.00000
-65.79112   0.00000   0.00000
-65.74109   0.00000   0.00000
-65.69106   0.00000   0.00000
-65.64103   0.00000   0.00000
-65.59099   0.00000   0.00000
-65.54096   0.00000   0.00000
-65.49093   0.00000   0.00000
-65.44090   0.00000   0.00000
-65.39087   0.00000   0.00000
-65.34084   0.00000   0.00000
-65.29081   0.00000   0.00000
-65.24078   0.00000   0.00000
-65.19074   0.00000   0.00000
-65.14071   0.00000   0.00000
-65.09068   0.00000   0.00000
-65.04065   0.00000   0.00000
-64.99062   0.00000   0.00000
-64.94059   0.00000   0.00000
-64.89056   0.00000   0.00000
-64.84053   0.00000   0.00000
-64.79049   0.00000   0.00000
-64.74046   0.00000   0.00000
-64.69043   0.00000   0.00000
-64.64040   0.00000   0.00000
-64.59037   0.00000   0.00000
-64.54034   0.00000   0.00000
-64.49031   0.00000   0.00000
-64.44028   0.00000   0.00000
-64.39024   0.00000   0.00000
-64.34021   0.00000   0.00000
-64.29018   0.00000   0.00000
-64.24015   0.00000   0.00000
-64.19012   0.00000   0.00000
-64.14009   0.00000   0.00000
-64.09006   0.00000   0.00000
-64.04003   0.00000   0.00000
-63.98999   0.00000   0.00000
-63.93996   0.00000   0.00000
-63.88993   0.00000   0.00000
-63.83990   0.00000   0.00000
-63.78987   0.00000   0.00000
-63.73984   0.00000   0.00000
-63.68981   0.00000   0.00000
-63.63977   0.00000   0.00000
-63.58974   0.00000   0.00000
-63.53971   0.00000   0.00000
-63.48968   0.00000   0.00000
-63.43965  20.42423   1.02185
-63.38962  59.57737   4.00258
-63.33959  57.43900   6.87633
-63.28956 182.36840  16.00045
-63.23952   0.00000  16.00045
-63.18949   0.00000  16.00045
-63.13946   0.00000  16.00045
-63.08943   0.00000  16.00045
-63.03940   0.00000  16.00045
-62.98937   0.00000  16.00045
-62.93934   0.00000  16.00045
-62.88931   0.00000  16.00045
-62.83927   0.00000  16.00045
-62.78924   0.00000  16.00045
-62.73921   0.00000  16.00045
-62.68918   0.00000  16.00045
-62.63915   0.00000  16.00045
-62.58912   0.00000  16.00045
-62.53909   0.00000  16.00045
-62.48906   0.00000  16.00045
-62.43902   0.00000  16.00045
-62.38899   0.00000  16.00045
-62.33896   0.00000  16.00045
-62.28893   0.00000  16.00045
-62.23890   0.00000  16.00045
-62.18887   0.00000  16.00045
-62.13884   0.00000  16.00045
-62.08881   0.00000  16.00045
-62.03877   0.00000  16.00045
-61.98874   0.00000  16.00045
-61.93871   0.00000  16.00045
-61.88868   0.00000  16.00045
-61.83865   0.00000  16.00045
-61.78862   0.00000  16.00045
-61.73859   0.00000  16.00045
-61.68856   0.00000  16.00045
-61.63852   0.00000  16.00045
-61.58849   0.00000  16.00045
-61.53846   0.00000  16.00045
-61.48843   0.00000  16.00045
-61.43840   0.00000  16.00045
-61.38837   0.00000  16.00045
-61.33834   0.00000  16.00045
-61.28831   0.00000  16.00045
-61.23827   0.00000  16.00045
-61.18824   0.00000  16.00045
-61.13821   0.00000  16.00045
-61.08818   0.00000  16.00045
-61.03815   0.00000  16.00045
-60.98812  60.04332  19.00449
-60.93809  99.86118  24.00068
-60.88806   0.00000  24.00068
-60.83802   0.00000  24.00068
-60.78799   0.00000  24.00068
-60.73796   0.00000  24.00068
-60.68793   0.00000  24.00068
-60.63790   0.00000  24.00068
-60.58787   0.00000  24.00068
-60.53784   0.00000  24.00068
-60.48780   0.00000  24.00068
-60.43777   0.00000  24.00068
-60.38774   0.00000  24.00068
-60.33771   0.00000  24.00068
-60.28768   0.00000  24.00068
-60.23765   0.00000  24.00068
-60.18762   0.00000  24.00068
-60.13759   0.00000  24.00068
-60.08755   0.00000  24.00068
-60.03752   0.00000  24.00068
-59.98749   0.00000  24.00068
-59.93746   0.00000  24.00068
-59.88743   0.00000  24.00068
-59.83740   0.00000  24.00068
-59.78737   0.00000  24.00068
-59.73734   0.00000  24.00068
-59.68730   0.00000  24.00068
-59.63727   0.00000  24.00068
-59.58724   0.00000  24.00068
-59.53721   0.00000  24.00068
-59.48718   0.00000  24.00068
-59.43715   0.00000  24.00068
-59.38712   0.00000  24.00068
-59.33709   0.00000  24.00068
-59.28705   0.00000  24.00068
-59.23702   0.00000  24.00068
-59.18699   0.00000  24.00068
-59.13696   0.00000  24.00068
-59.08693   0.00000  24.00068
-59.03690   0.00000  24.00068
-58.98687   0.00000  24.00068
-58.93684   0.00000  24.00068
-58.88680   0.00000  24.00068
-58.83677   0.00000  24.00068
-58.78674   0.00000  24.00068
-58.73671   0.00000  24.00068
-58.68668   0.00000  24.00068
-58.63665   0.00000  24.00068
-58.58662   0.00000  24.00068
-58.53659   0.00000  24.00068
-58.48655   0.00000  24.00068
-58.43652   0.00000  24.00068
-58.38649   0.00000  24.00068
-58.33646   0.00000  24.00068
-58.28643   0.00000  24.00068
-58.23640   0.00000  24.00068
-58.18637   0.00000  24.00068
-58.13634   0.00000  24.00068
-58.08630   0.00000  24.00068
-58.03627   0.00000  24.00068
-57.98624   0.00000  24.00068
-57.93621   0.00000  24.00068
-57.88618   0.00000  24.00068
-57.83615   0.00000  24.00068
-57.78612   0.00000  24.00068
-57.73609   0.00000  24.00068
-57.68605   0.00000  24.00068
-57.63602   0.00000  24.00068
-57.58599   0.00000  24.00068
-57.53596   0.00000  24.00068
-57.48593   0.00000  24.00068
-57.43590   0.00000  24.00068
-57.38587   0.00000  24.00068
-57.33583   0.00000  24.00068
-57.28580   0.00000  24.00068
-57.23577   0.00000  24.00068
-57.18574   0.00000  24.00068
-57.13571   0.00000  24.00068
-57.08568   0.00000  24.00068
-57.03565   0.00000  24.00068
-56.98562   0.00000  24.00068
-56.93558   0.00000  24.00068
-56.88555   0.00000  24.00068
-56.83552   0.00000  24.00068
-56.78549   0.00000  24.00068
-56.73546   0.00000  24.00068
-56.68543   0.00000  24.00068
-56.63540   0.00000  24.00068
-56.58537   0.00000  24.00068
-56.53533   0.00000  24.00068
-56.48530   0.00000  24.00068
-56.43527   0.00000  24.00068
-56.38524   0.00000  24.00068
-56.33521   0.00000  24.00068
-56.28518   0.00000  24.00068
-56.23515   0.00000  24.00068
-56.18512   0.00000  24.00068
-56.13508   0.00000  24.00068
-56.08505   0.00000  24.00068
-56.03502   0.00000  24.00068
-55.98499   0.00000  24.00068
-55.93496   0.00000  24.00068
-55.88493   0.00000  24.00068
-55.83490   0.00000  24.00068
-55.78487   0.00000  24.00068
-55.73483   0.00000  24.00068
-55.68480   0.00000  24.00068
-55.63477   0.00000  24.00068
-55.58474   0.00000  24.00068
-55.53471   0.00000  24.00068
-55.48468   0.00000  24.00068
-55.43465   0.00000  24.00068
-55.38462   0.00000  24.00068
-55.33458   0.00000  24.00068
-55.28455   0.00000  24.00068
-55.23452   0.00000  24.00068
-55.18449   0.00000  24.00068
-55.13446   0.00000  24.00068
-55.08443   0.00000  24.00068
-55.03440   0.00000  24.00068
-54.98437   0.00000  24.00068
-54.93433   0.00000  24.00068
-54.88430   0.00000  24.00068
-54.83427   0.00000  24.00068
-54.78424   0.00000  24.00068
-54.73421   0.00000  24.00068
-54.68418   0.00000  24.00068
-54.63415   0.00000  24.00068
-54.58412   0.00000  24.00068
-54.53408   0.00000  24.00068
-54.48405   0.00000  24.00068
-54.43402   0.00000  24.00068
-54.38399   0.00000  24.00068
-54.33396   0.00000  24.00068
-54.28393   0.00000  24.00068
-54.23390   0.00000  24.00068
-54.18386   0.00000  24.00068
-54.13383   0.00000  24.00068
-54.08380   0.00000  24.00068
-54.03377   0.00000  24.00068
-53.98374   0.00000  24.00068
-53.93371   0.00000  24.00068
-53.88368   0.00000  24.00068
-53.83365   0.00000  24.00068
-53.78361   0.00000  24.00068
-53.73358   0.00000  24.00068
-53.68355   0.00000  24.00068
-53.63352   0.00000  24.00068
-53.58349   0.00000  24.00068
-53.53346   0.00000  24.00068
-53.48343   0.00000  24.00068
-53.43340   0.00000  24.00068
-53.38336   0.00000  24.00068
-53.33333   0.00000  24.00068
-53.28330   0.00000  24.00068
-53.23327   0.00000  24.00068
-53.18324   0.00000  24.00068
-53.13321   0.00000  24.00068
-53.08318   0.00000  24.00068
-53.03315   0.00000  24.00068
-52.98311   0.00000  24.00068
-52.93308   0.00000  24.00068
-52.88305   0.00000  24.00068
-52.83302   0.00000  24.00068
-52.78299   0.00000  24.00068
-52.73296   0.00000  24.00068
-52.68293   0.00000  24.00068
-52.63290   0.00000  24.00068
-52.58286   0.00000  24.00068
-52.53283   0.00000  24.00068
-52.48280   0.00000  24.00068
-52.43277   0.00000  24.00068
-52.38274   0.00000  24.00068
-52.33271   0.00000  24.00068
-52.28268   0.00000  24.00068
-52.23265   0.00000  24.00068
-52.18261   0.00000  24.00068
-52.13258   0.00000  24.00068
-52.08255   0.00000  24.00068
-52.03252   0.00000  24.00068
-51.98249   0.00000  24.00068
-51.93246   0.00000  24.00068
-51.88243   0.00000  24.00068
-51.83240   0.00000  24.00068
-51.78236   0.00000  24.00068
-51.73233   0.00000  24.00068
-51.68230   0.00000  24.00068
-51.63227   0.00000  24.00068
-51.58224   0.00000  24.00068
-51.53221   0.00000  24.00068
-51.48218   0.00000  24.00068
-51.43215   0.00000  24.00068
-51.38211   0.00000  24.00068
-51.33208   0.00000  24.00068
-51.28205   0.00000  24.00068
-51.23202   0.00000  24.00068
-51.18199   0.00000  24.00068
-51.13196   0.00000  24.00068
-51.08193   0.00000  24.00068
-51.03189   0.00000  24.00068
-50.98186   0.00000  24.00068
-50.93183   0.00000  24.00068
-50.88180   0.00000  24.00068
-50.83177   0.00000  24.00068
-50.78174   0.00000  24.00068
-50.73171   0.00000  24.00068
-50.68168   0.00000  24.00068
-50.63164   0.00000  24.00068
-50.58161   0.00000  24.00068
-50.53158   0.00000  24.00068
-50.48155   0.00000  24.00068
-50.43152   0.00000  24.00068
-50.38149   0.00000  24.00068
-50.33146   0.00000  24.00068
-50.28143   0.00000  24.00068
-50.23139   0.00000  24.00068
-50.18136   0.00000  24.00068
-50.13133   0.00000  24.00068
-50.08130   0.00000  24.00068
-50.03127   0.00000  24.00068
-49.98124   0.00000  24.00068
-49.93121   0.00000  24.00068
-49.88118   0.00000  24.00068
-49.83114   0.00000  24.00068
-49.78111   0.00000  24.00068
-49.73108   0.00000  24.00068
-49.68105   0.00000  24.00068
-49.63102   0.00000  24.00068
-49.58099   0.00000  24.00068
-49.53096   0.00000  24.00068
-49.48093   0.00000  24.00068
-49.43089   0.00000  24.00068
-49.38086   0.00000  24.00068
-49.33083   0.00000  24.00068
-49.28080   0.00000  24.00068
-49.23077   0.00000  24.00068
-49.18074   0.00000  24.00068
-49.13071   0.00000  24.00068
-49.08068   0.00000  24.00068
-49.03064   0.00000  24.00068
-48.98061   0.00000  24.00068
-48.93058   0.00000  24.00068
-48.88055   0.00000  24.00068
-48.83052   0.00000  24.00068
-48.78049   0.00000  24.00068
-48.73046   0.00000  24.00068
-48.68043   0.00000  24.00068
-48.63039   0.00000  24.00068
-48.58036   0.00000  24.00068
-48.53033   0.00000  24.00068
-48.48030   0.00000  24.00068
-48.43027   0.00000  24.00068
-48.38024   0.00000  24.00068
-48.33021   0.00000  24.00068
-48.28018   0.00000  24.00068
-48.23014   0.00000  24.00068
-48.18011   0.00000  24.00068
-48.13008   0.00000  24.00068
-48.08005   0.00000  24.00068
-48.03002   0.00000  24.00068
-47.97999   0.00000  24.00068
-47.92996   0.00000  24.00068
-47.87992   0.00000  24.00068
-47.82989   0.00000  24.00068
-47.77986   0.00000  24.00068
-47.72983   0.00000  24.00068
-47.67980   0.00000  24.00068
-47.62977   0.00000  24.00068
-47.57974   0.00000  24.00068
-47.52971   0.00000  24.00068
-47.47967   0.00000  24.00068
-47.42964   0.00000  24.00068
-47.37961   0.00000  24.00068
-47.32958   0.00000  24.00068
-47.27955   0.00000  24.00068
-47.22952   0.00000  24.00068
-47.17949   0.00000  24.00068
-47.12946   0.00000  24.00068
-47.07942   0.00000  24.00068
-47.02939   0.00000  24.00068
-46.97936   0.00000  24.00068
-46.92933   0.00000  24.00068
-46.87930   0.00000  24.00068
-46.82927   0.00000  24.00068
-46.77924   0.00000  24.00068
-46.72921   0.00000  24.00068
-46.67917   0.00000  24.00068
-46.62914   0.00000  24.00068
-46.57911   0.00000  24.00068
-46.52908   0.00000  24.00068
-46.47905   0.00000  24.00068
-46.42902   0.00000  24.00068
-46.37899   0.00000  24.00068
-46.32896   0.00000  24.00068
-46.27892   0.00000  24.00068
-46.22889   0.00000  24.00068
-46.17886   0.00000  24.00068
-46.12883   0.00000  24.00068
-46.07880   0.00000  24.00068
-46.02877   0.00000  24.00068
-45.97874   0.00000  24.00068
-45.92871   0.00000  24.00068
-45.87867   0.00000  24.00068
-45.82864   0.00000  24.00068
-45.77861   0.00000  24.00068
-45.72858   0.00000  24.00068
-45.67855   0.00000  24.00068
-45.62852   0.00000  24.00068
-45.57849   0.00000  24.00068
-45.52846   0.00000  24.00068
-45.47842   0.00000  24.00068
-45.42839   0.00000  24.00068
-45.37836   0.00000  24.00068
-45.32833   0.00000  24.00068
-45.27830   0.00000  24.00068
-45.22827   0.00000  24.00068
-45.17824   0.00000  24.00068
-45.12821   0.00000  24.00068
-45.07817   0.00000  24.00068
-45.02814   0.00000  24.00068
-44.97811   0.00000  24.00068
-44.92808   0.00000  24.00068
-44.87805   0.00000  24.00068
-44.82802   0.00000  24.00068
-44.77799   0.00000  24.00068
-44.72795   0.00000  24.00068
-44.67792   0.00000  24.00068
-44.62789   0.00000  24.00068
-44.57786   0.00000  24.00068
-44.52783   0.00000  24.00068
-44.47780   0.00000  24.00068
-44.42777   0.00000  24.00068
-44.37774   0.00000  24.00068
-44.32770   0.00000  24.00068
-44.27767   0.00000  24.00068
-44.22764   0.00000  24.00068
-44.17761   0.00000  24.00068
-44.12758   0.00000  24.00068
-44.07755   0.00000  24.00068
-44.02752   0.00000  24.00068
-43.97749   0.00000  24.00068
-43.92745   0.00000  24.00068
-43.87742   0.00000  24.00068
-43.82739   0.00000  24.00068
-43.77736   0.00000  24.00068
-43.72733   0.00000  24.00068
-43.67730   0.00000  24.00068
-43.62727   0.00000  24.00068
-43.57724   0.00000  24.00068
-43.52720   0.00000  24.00068
-43.47717   0.00000  24.00068
-43.42714   0.00000  24.00068
-43.37711   0.00000  24.00068
-43.32708   0.00000  24.00068
-43.27705   0.00000  24.00068
-43.22702   0.00000  24.00068
-43.17699   0.00000  24.00068
-43.12695   0.00000  24.00068
-43.07692   0.00000  24.00068
-43.02689   0.00000  24.00068
-42.97686   0.00000  24.00068
-42.92683   0.00000  24.00068
-42.87680   0.00000  24.00068
-42.82677   0.00000  24.00068
-42.77674   0.00000  24.00068
-42.72670   0.00000  24.00068
-42.67667   0.00000  24.00068
-42.62664   0.00000  24.00068
-42.57661   0.00000  24.00068
-42.52658   0.00000  24.00068
-42.47655   0.00000  24.00068
-42.42652   0.00000  24.00068
-42.37649   0.00000  24.00068
-42.32645   0.00000  24.00068
-42.27642   0.00000  24.00068
-42.22639   0.00000  24.00068
-42.17636   0.00000  24.00068
-42.12633   0.00000  24.00068
-42.07630   0.00000  24.00068
-42.02627   0.00000  24.00068
-41.97624   0.00000  24.00068
-41.92620   0.00000  24.00068
-41.87617   0.00000  24.00068
-41.82614   0.00000  24.00068
-41.77611   0.00000  24.00068
-41.72608   0.00000  24.00068
-41.67605   0.00000  24.00068
-41.62602   0.00000  24.00068
-41.57598   0.00000  24.00068
-41.52595   0.00000  24.00068
-41.47592   0.00000  24.00068
-41.42589   0.00000  24.00068
-41.37586   0.00000  24.00068
-41.32583   0.00000  24.00068
-41.27580   0.00000  24.00068
-41.22577   0.00000  24.00068
-41.17573   0.00000  24.00068
-41.12570   0.00000  24.00068
-41.07567   0.00000  24.00068
-41.02564   0.00000  24.00068
-40.97561   0.00000  24.00068
-40.92558   0.00000  24.00068
-40.87555   0.00000  24.00068
-40.82552   0.00000  24.00068
-40.77548   0.00000  24.00068
-40.72545   0.00000  24.00068
-40.67542   0.00000  24.00068
-40.62539   0.00000  24.00068
-40.57536   0.00000  24.00068
-40.52533   0.00000  24.00068
-40.47530   0.00000  24.00068
-40.42527   0.00000  24.00068
-40.37523   0.00000  24.00068
-40.32520   0.00000  24.00068
-40.27517   0.00000  24.00068
-40.22514   0.00000  24.00068
-40.17511   0.00000  24.00068
-40.12508   0.00000  24.00068
-40.07505   0.00000  24.00068
-40.02502   0.00000  24.00068
-39.97498   0.00000  24.00068
-39.92495   0.00000  24.00068
-39.87492   0.00000  24.00068
-39.82489   0.00000  24.00068
-39.77486   0.00000  24.00068
-39.72483   0.00000  24.00068
-39.67480   0.00000  24.00068
-39.62477   0.00000  24.00068
-39.57473   0.00000  24.00068
-39.52470   0.00000  24.00068
-39.47467   0.00000  24.00068
-39.42464   0.00000  24.00068
-39.37461   0.00000  24.00068
-39.32458   0.00000  24.00068
-39.27455   0.00000  24.00068
-39.22452   0.00000  24.00068
-39.17448   0.00000  24.00068
-39.12445   0.00000  24.00068
-39.07442   0.00000  24.00068
-39.02439   0.00000  24.00068
-38.97436   0.00000  24.00068
-38.92433   0.00000  24.00068
-38.87430   0.00000  24.00068
-38.82427   0.00000  24.00068
-38.77423   0.00000  24.00068
-38.72420   0.00000  24.00068
-38.67417   0.00000  24.00068
-38.62414   0.00000  24.00068
-38.57411   0.00000  24.00068
-38.52408   0.00000  24.00068
-38.47405   0.00000  24.00068
-38.42402   0.00000  24.00068
-38.37398   0.00000  24.00068
-38.32395   0.00000  24.00068
-38.27392   0.00000  24.00068
-38.22389   0.00000  24.00068
-38.17386   0.00000  24.00068
-38.12383   0.00000  24.00068
-38.07380   0.00000  24.00068
-38.02376   0.00000  24.00068
-37.97373   0.00000  24.00068
-37.92370   0.00000  24.00068
-37.87367   0.00000  24.00068
-37.82364   1.94466  24.09797
-37.77361   5.34984  24.36563
-37.72358   9.24568  24.82820
-37.67355  17.51369  25.70443
-37.62351  19.04325  26.65719
-37.57348  16.30844  27.47312
-37.52345  10.40319  27.99361
-37.47342  16.60924  28.82459
-37.42339  73.10709  32.48223
-37.37336  68.17710  35.89322
-37.32333  97.40283  40.76640
-37.27330  78.62318  44.70002
-37.22326  64.72552  47.93832
-37.17323  59.14213  50.89728
-37.12320  66.55329  54.22702
-37.07317  83.35128  58.39719
-37.02314  77.69889  62.28457
-36.97311  25.80770  63.57576
-36.92308  34.91897  65.32280
-36.87305  91.16508  69.88390
-36.82301  42.33598  72.00203
-36.77298   0.00000  72.00203
-36.72295   0.00000  72.00203
-36.67292   0.00000  72.00203
-36.62289   0.00000  72.00203
-36.57286   0.00000  72.00203
-36.52283   0.00000  72.00203
-36.47280   0.00000  72.00203
-36.42276   0.00000  72.00203
-36.37273   0.00000  72.00203
-36.32270   0.00000  72.00203
-36.27267   0.00000  72.00203
-36.22264   0.00000  72.00203
-36.17261   0.00000  72.00203
-36.12258   0.00000  72.00203
-36.07255   0.00000  72.00203
-36.02251   0.00000  72.00203
-35.97248   0.00000  72.00203
-35.92245   0.00000  72.00203
-35.87242   0.00000  72.00203
-35.82239   0.00000  72.00203
-35.77236   0.00000  72.00203
-35.72233   0.00000  72.00203
-35.67230   0.00000  72.00203
-35.62226   0.00000  72.00203
-35.57223   0.00000  72.00203
-35.52220   0.00000  72.00203
-35.47217   0.00000  72.00203
-35.42214   0.00000  72.00203
-35.37211   0.00000  72.00203
-35.32208   0.00000  72.00203
-35.27205   0.00000  72.00203
-35.22201   0.00000  72.00203
-35.17198   0.00000  72.00203
-35.12195   0.00000  72.00203
-35.07192   0.00000  72.00203
-35.02189   0.00000  72.00203
-34.97186   0.00000  72.00203
-34.92183   0.00000  72.00203
-34.87179   0.00000  72.00203
-34.82176   0.00000  72.00203
-34.77173   0.00000  72.00203
-34.72170   0.00000  72.00203
-34.67167   0.00000  72.00203
-34.62164   0.00000  72.00203
-34.57161   0.00000  72.00203
-34.52158   0.00000  72.00203
-34.47154   0.00000  72.00203
-34.42151   0.00000  72.00203
-34.37148   0.00000  72.00203
-34.32145   0.00000  72.00203
-34.27142   0.00000  72.00203
-34.22139   0.00000  72.00203
-34.17136   0.00000  72.00203
-34.12133   0.00000  72.00203
-34.07129   0.00000  72.00203
-34.02126   0.00000  72.00203
-33.97123   0.00000  72.00203
-33.92120   0.00000  72.00203
-33.87117   0.00000  72.00203
-33.82114   0.00000  72.00203
-33.77111   0.00000  72.00203
-33.72108   0.00000  72.00203
-33.67104   0.00000  72.00203
-33.62101   0.00000  72.00203
-33.57098   0.00000  72.00203
-33.52095   0.00000  72.00203
-33.47092   0.00000  72.00203
-33.42089   0.00000  72.00203
-33.37086   0.00000  72.00203
-33.32083   0.00000  72.00203
-33.27079   0.00000  72.00203
-33.22076   0.00000  72.00203
-33.17073   0.00000  72.00203
-33.12070   0.00000  72.00203
-33.07067   0.00000  72.00203
-33.02064   0.00000  72.00203
-32.97061   0.00000  72.00203
-32.92058   0.00000  72.00203
-32.87054   0.00000  72.00203
-32.82051   0.00000  72.00203
-32.77048   0.00000  72.00203
-32.72045   0.00000  72.00203
-32.67042   0.00000  72.00203
-32.62039   0.00000  72.00203
-32.57036   0.00000  72.00203
-32.52033   0.00000  72.00203
-32.47029   0.00000  72.00203
-32.42026   0.00000  72.00203
-32.37023   0.00000  72.00203
-32.32020   0.00000  72.00203
-32.27017   0.00000  72.00203
-32.22014   0.00000  72.00203
-32.17011   0.00000  72.00203
-32.12008   0.00000  72.00203
-32.07004   0.00000  72.00203
-32.02001   0.00000  72.00203
-31.96998   0.00000  72.00203
-31.91995   0.00000  72.00203
-31.86992   0.00000  72.00203
-31.81989   0.00000  72.00203
-31.76986   0.00000  72.00203
-31.71982   0.00000  72.00203
-31.66979   0.00000  72.00203
-31.61976   0.00000  72.00203
-31.56973   0.00000  72.00203
-31.51970   0.00000  72.00203
-31.46967   0.00000  72.00203
-31.41964   0.00000  72.00203
-31.36961   0.00000  72.00203
-31.31957   0.00000  72.00203
-31.26954   0.00000  72.00203
-31.21951   0.00000  72.00203
-31.16948   0.00000  72.00203
-31.11945   0.00000  72.00203
-31.06942   0.00000  72.00203
-31.01939   0.00000  72.00203
-30.96936   0.00000  72.00203
-30.91932   0.00000  72.00203
-30.86929   0.00000  72.00203
-30.81926   0.00000  72.00203
-30.76923   0.00000  72.00203
-30.71920   0.00000  72.00203
-30.66917   0.00000  72.00203
-30.61914   0.00000  72.00203
-30.56911   0.00000  72.00203
-30.51907   0.00000  72.00203
-30.46904   0.00000  72.00203
-30.41901   0.00000  72.00203
-30.36898   0.00000  72.00203
-30.31895   0.00000  72.00203
-30.26892   0.00000  72.00203
-30.21889   0.00000  72.00203
-30.16886   0.00000  72.00203
-30.11882   0.00000  72.00203
-30.06879   0.00000  72.00203
-30.01876   0.00000  72.00203
-29.96873   0.00000  72.00203
-29.91870   0.00000  72.00203
-29.86867   0.00000  72.00203
-29.81864   0.00000  72.00203
-29.76861 156.62602  79.83823
-29.71857  37.28678  81.70373
-29.66854  41.29390  83.76972
-29.61851  18.45969  84.69328
-29.56848  46.79008  87.03425
-29.51845  50.65605  89.56863
-29.46842 128.60099  96.00270
-29.41839   0.00000  96.00270
-29.36836   0.00000  96.00270
-29.31832   0.00000  96.00270
-29.26829   0.00000  96.00270
-29.21826   0.00000  96.00270
-29.16823   0.00000  96.00270
-29.11820   0.00000  96.00270
-29.06817   0.00000  96.00270
-29.01814   0.00000  96.00270
-28.96811   0.00000  96.00270
-28.91807   0.00000  96.00270
-28.86804   0.00000  96.00270
-28.81801   0.00000  96.00270
-28.76798   0.00000  96.00270
-28.71795   0.00000  96.00270
-28.66792   0.00000  96.00270
-28.61789   0.00000  96.00270
-28.56785   0.00000  96.00270
-28.51782   0.00000  96.00270
-28.46779   0.00000  96.00270
-28.41776   0.00000  96.00270
-28.36773   0.00000  96.00270
-28.31770   0.00000  96.00270
-28.26767   0.00000  96.00270
-28.21764   0.00000  96.00270
-28.16760   0.00000  96.00270
-28.11757   0.00000  96.00270
-28.06754   0.00000  96.00270
-28.01751   0.00000  96.00270
-27.96748   0.00000  96.00270
-27.91745   0.00000  96.00270
-27.86742   0.00000  96.00270
-27.81739   0.00000  96.00270
-27.76735   0.00000  96.00270
-27.71732   0.00000  96.00270
-27.66729   0.00000  96.00270
-27.61726   0.00000  96.00270
-27.56723   0.00000  96.00270
-27.51720   0.00000  96.00270
-27.46717   0.00000  96.00270
-27.41714   0.00000  96.00270
-27.36710   0.00000  96.00270
-27.31707   0.00000  96.00270
-27.26704   0.00000  96.00270
-27.21701   0.00000  96.00270
-27.16698   0.00000  96.00270
-27.11695   0.00000  96.00270
-27.06692   0.00000  96.00270
-27.01689   0.00000  96.00270
-26.96685   0.00000  96.00270
-26.91682   0.00000  96.00270
-26.86679   0.00000  96.00270
-26.81676   0.00000  96.00270
-26.76673   0.00000  96.00270
-26.71670   0.00000  96.00270
-26.66667   0.00000  96.00270
-26.61664   0.00000  96.00270
-26.56660   0.00000  96.00270
-26.51657   0.00000  96.00270
-26.46654   0.00000  96.00270
-26.41651   0.00000  96.00270
-26.36648   0.00000  96.00270
-26.31645   0.00000  96.00270
-26.26642   0.00000  96.00270
-26.21639   0.00000  96.00270
-26.16635   0.00000  96.00270
-26.11632   0.00000  96.00270
-26.06629   0.00000  96.00270
-26.01626   0.00000  96.00270
-25.96623   0.00000  96.00270
-25.91620   0.00000  96.00270
-25.86617   0.00000  96.00270
-25.81614   0.00000  96.00270
-25.76610   0.00000  96.00270
-25.71607   0.00000  96.00270
-25.66604   0.00000  96.00270
-25.61601   0.00000  96.00270
-25.56598   0.00000  96.00270
-25.51595   0.00000  96.00270
-25.46592   0.00000  96.00270
-25.41588   0.00000  96.00270
-25.36585   0.00000  96.00270
-25.31582   0.00000  96.00270
-25.26579   0.00000  96.00270
-25.21576   0.00000  96.00270
-25.16573   0.00000  96.00270
-25.11570   0.00000  96.00270
-25.06567   0.00000  96.00270
-25.01563   0.00000  96.00270
-24.96560   0.00000  96.00270
-24.91557   0.00000  96.00270
-24.86554   0.00000  96.00270
-24.81551   0.00000  96.00270
-24.76548   0.00000  96.00270
-24.71545   0.00000  96.00270
-24.66542   0.00000  96.00270
-24.61538   0.00000  96.00270
-24.56535   0.00000  96.00270
-24.51532   0.00000  96.00270
-24.46529   0.00000  96.00270
-24.41526   0.00000  96.00270
-24.36523   0.00000  96.00270
-24.31520   0.00000  96.00270
-24.26517   0.00000  96.00270
-24.21513   0.00000  96.00270
-24.16510   0.00000  96.00270
-24.11507   0.00000  96.00270
-24.06504   0.00000  96.00270
-24.01501   0.00000  96.00270
-23.96498   0.00000  96.00270
-23.91495   0.00000  96.00270
-23.86492   0.00000  96.00270
-23.81488   0.00000  96.00270
-23.76485   0.00000  96.00270
-23.71482   0.00000  96.00270
-23.66479   0.00000  96.00270
-23.61476   0.00000  96.00270
-23.56473   0.00000  96.00270
-23.51470   0.00000  96.00270
-23.46467   0.00000  96.00270
-23.41463   0.00000  96.00270
-23.36460   0.00000  96.00270
-23.31457   0.00000  96.00270
-23.26454   0.00000  96.00270
-23.21451   0.00000  96.00270
-23.16448   0.00000  96.00270
-23.11445   0.00000  96.00270
-23.06442   0.00000  96.00270
-23.01438   0.00000  96.00270
-22.96435   0.00000  96.00270
-22.91432   0.00000  96.00270
-22.86429   0.00000  96.00270
-22.81426   0.00000  96.00270
-22.76423   0.00000  96.00270
-22.71420   0.00000  96.00270
-22.66417   0.00000  96.00270
-22.61413   0.00000  96.00270
-22.56410   0.00000  96.00270
-22.51407   0.00000  96.00270
-22.46404   0.00000  96.00270
-22.41401   0.00000  96.00270
-22.36398   0.00000  96.00270
-22.31395   0.00000  96.00270
-22.26391   0.00000  96.00270
-22.21388   0.00000  96.00270
-22.16385   0.00000  96.00270
-22.11382   0.00000  96.00270
-22.06379   0.00000  96.00270
-22.01376   0.00000  96.00270
-21.96373   0.00000  96.00270
-21.91370   0.00000  96.00270
-21.86366   0.00000  96.00270
-21.81363   0.00000  96.00270
-21.76360   0.00000  96.00270
-21.71357   0.00000  96.00270
-21.66354   0.00000  96.00270
-21.61351   0.00000  96.00270
-21.56348   0.00000  96.00270
-21.51345   0.00000  96.00270
-21.46341   0.00000  96.00270
-21.41338   0.00000  96.00270
-21.36335   0.00000  96.00270
-21.31332   0.00000  96.00270
-21.26329   0.00000  96.00270
-21.21326   0.00000  96.00270
-21.16323   0.00000  96.00270
-21.11320   0.00000  96.00270
-21.06316   0.00000  96.00270
-21.01313   0.00000  96.00270
-20.96310   0.00000  96.00270
-20.91307   0.00000  96.00270
-20.86304   0.00000  96.00270
-20.81301   0.00000  96.00270
-20.76298   0.00000  96.00270
-20.71295   0.00000  96.00270
-20.66291   0.00000  96.00270
-20.61288   0.00000  96.00270