  COHP#  atomMU  atomNU     distance          ICOHP(eF) avg. over # bonds  for spin  1
      1     Hf1     Hf3      3.17294           -1.72125                 2
      2     Hf1     Hf4      3.17294           -1.73160                 2
      3     Hf1      V5      3.09263           -1.19322                 1
      4     Hf1      V6      3.01010           -1.26778                 2
      5     Hf1      V7      3.01010           -1.26762                 2
      6     Hf1      V8      3.09263           -1.19228                 1
      7     Hf1      V9      3.01010           -1.26737                 2
      8     Hf1     V10      3.09263           -1.19970                 1
      9     Hf1     V11      3.09263           -1.19993                 1
     10     Hf1     V12      3.01010           -1.26793                 2
     11     Hf2     Hf3      3.17294           -1.72419                 2
     12     Hf2     Hf4      3.17294           -1.73447                 2
     13     Hf2      V5      3.01010           -1.26601                 2
     14     Hf2      V6      3.09263           -1.19932                 1
     15     Hf2      V7      3.09263           -1.20010                 1
     16     Hf2      V8      3.01010           -1.26287                 2
     17     Hf2      V9      3.09263           -1.19176                 1
     18     Hf2     V10      3.01010           -1.26401                 2
     19     Hf2     V11      3.01010           -1.26476                 2
     20     Hf2     V12      3.09263           -1.19190                 1
     21     Hf3      V5      3.09263           -1.18991                 1
     22     Hf3      V6      3.01010           -1.25477                 2
     23     Hf3      V7      3.01010           -1.25456                 2
     24     Hf3      V8      3.09263           -1.18960                 1
     25     Hf3      V9      3.09263           -1.18786                 1
     26     Hf3     V10      3.01010           -1.25256                 2
     27     Hf3     V11      3.01010           -1.25348                 2
     28     Hf3     V12      3.09263           -1.18777                 1
     29     Hf4      V5      3.01010           -1.27959                 2
     30     Hf4      V6      3.09263           -1.20372                 1
     31     Hf4      V7      3.09263           -1.20376                 1
     32     Hf4      V8      3.01010           -1.27567                 2
     33     Hf4      V9      3.01010           -1.27849                 2
     34     Hf4     V10      3.09263           -1.20328                 1
     35     Hf4     V11      3.09263           -1.20370                 1
     36     Hf4     V12      3.01010           -1.27903                 2
     37      V5      V8      2.55809           -1.62328                 2
     38      V5      V9      2.60684           -1.49505                 1
     39      V5     V10      2.60684           -1.49745                 1
     40      V5     V11      2.60684           -1.49886                 1
     41      V5     V12      2.60684           -1.49691                 1
     42      V6      V7      2.55809           -1.62402                 2
     43      V6      V9      2.60684           -1.49743                 1
     44      V6     V10      2.60684           -1.49951                 1
     45      V6     V11      2.60684           -1.50120                 1
     46      V6     V12      2.60684           -1.49933                 1
     47      V7      V9      2.60684           -1.49663                 1
     48      V7     V10      2.60684           -1.49897                 1
     49      V7     V11      2.60684           -1.49839                 1
     50      V7     V12      2.60684           -1.49627                 1
     51      V8      V9      2.60684           -1.49360                 1
     52      V8     V10      2.60684           -1.49603                 1
     53      V8     V11      2.60684           -1.49560                 1
     54      V8     V12      2.60684           -1.49339                 1
     55      V9     V12      2.55809           -1.62177                 2
     56     V10     V11      2.55809           -1.62412                 2
