================================================================================
| EXCITING BORON started                                                       =
| version hash id:                                                             =
| MPI version using     16 processor(s)                                        =
|                                                                              =
| Date (DD-MM-YYYY) : 12-08-2015                                               =
| Time (hh:mm:ss)   : 23:23:08                                                 =
|                                                                              =
| All units are atomic (Hartree, Bohr, etc.)                                   =
================================================================================
 
********************************************************************************
| Structural optimisation starting from atomic densities                       *
********************************************************************************
 
++++++++++++++++++++++++++++++++++++++++++++++++++++++++++++++++++++++++++++++++
| Starting initialization                                                      +
++++++++++++++++++++++++++++++++++++++++++++++++++++++++++++++++++++++++++++++++
 
 Lattice vectors (cartesian) :
      2.3501547992      4.0302806799      0.0403068379
     -2.3501547992      4.0302806799      0.0403068379
      0.0000000000      0.0657643086      6.5757731538
 
 Reciprocal lattice vectors (cartesian) :
      1.3367598827      0.7795752099     -0.0077965318
     -1.3367598827      0.7795752099     -0.0077965318
      0.0000000000     -0.0095569634      0.9556007586
 
 Unit cell volume                           :     124.5561397243
 Brillouin zone volume                      :       1.9914731943
 
 Species :    1 (C)
     parameters loaded from                 :    C.xml
     name                                   :    carbon
     nuclear charge                         :      -6.00000000
     electronic charge                      :       6.00000000
     atomic mass                            :   21894.16673000
     muffin-tin radius                      :       1.20000000
     # of radial points in muffin-tin       :     250
 
     atomic positions (lattice) :
       1 :   0.00000000  0.00000000  0.00000000
       2 :   0.33333333  0.33333333  0.00000000
 
 Total number of atoms per unit cell        :       2
 
 Spin treatment                             :    spin-unpolarised
 
 Number of Bravais lattice symmetries       :       4
 Number of crystal symmetries               :       4
 
 k-point grid                               :      34   34   24
 Total number of k-points                   :    7159
 k-point set is reduced with crystal symmetries
 
 R^MT_min * |G+k|_max (rgkmax)              :       8.00000000
 Species with R^MT_min                      :       1 (C)
 Maximum |G+k| for APW functions            :       6.66666667
 Maximum |G| for potential and density      :      20.00000000
 
 G-vector grid sizes                        :      30    30    45
 Total number of G-vectors                  :   16807
 
 Maximum angular momentum used for
     APW functions                          :       8
     computing H and O matrix elements      :       8
     potential and density                  :       8
     inner part of muffin-tin               :       2
 
 Total nuclear charge                       :     -12.00000000
 Total electronic charge                    :      12.00000000
 Total core charge                          :       4.00000000
 Total valence charge                       :       8.00000000
 
 Number of empty states                     :       5
 Total number of valence states             :      10
 
 Maximum Hamiltonian size                   :     652
 Maximum number of plane-waves              :     644
 Total number of local-orbitals             :       8
 
 Exchange-correlation type                  :      20
     Perdew-Burke-Ernzerhof, Phys. Rev. Lett. 77, 3865 (1996)
     Generalised gradient approximation (GGA)
 
 Smearing scheme                            :    Gaussian
 Smearing width                             :       0.01000000
 
 Using multisecant Broyden potential mixing
 
++++++++++++++++++++++++++++++++++++++++++++++++++++++++++++++++++++++++++++++++
| Ending initialization                                                        +
++++++++++++++++++++++++++++++++++++++++++++++++++++++++++++++++++++++++++++++++
 
********************************************************************************
| Groundstate module started                                                   *
********************************************************************************
 Output level for this task is set to normal
 
++++++++++++++++++++++++++++++++++++++++++++++++++++++++++++++++++++++++++++++++
| Self-consistent loop started                                                 +
++++++++++++++++++++++++++++++++++++++++++++++++++++++++++++++++++++++++++++++++
 Density and potential initialised from atomic data
 
 
++++++++++++++++++++++++++++++++++++++++++++++++++++++++++++++++++++++++++++++++
| SCF iteration number :    1                                                  +
++++++++++++++++++++++++++++++++++++++++++++++++++++++++++++++++++++++++++++++++
 Total energy                               :       -78.29754323
 _______________________________________________________________
 Fermi energy                               :         0.15867550
 Kinetic energy                             :        74.49309836
 Coulomb energy                             :      -141.88337028
 Exchange energy                            :       -10.48892903
 Correlation energy                         :        -0.41834228
 
 DOS at Fermi energy (states/Ha/cell)       :         0.98024209
 
 Electron charges :
     core                                   :         4.00000000
     core leakage                           :         0.00128176
     valence                                :         8.00000000
     interstitial                           :         4.56135709
     charge in muffin-tin spheres :
                  atom     1     C          :         3.71932145
                  atom     2     C          :         3.71932145
     total charge in muffin-tins            :         7.43864291
     total charge                           :        12.00000000
 
 Wall time (seconds)                        :       176.84
 
++++++++++++++++++++++++++++++++++++++++++++++++++++++++++++++++++++++++++++++++
| SCF iteration number :    2                                                  +
++++++++++++++++++++++++++++++++++++++++++++++++++++++++++++++++++++++++++++++++
 Total energy                               :       -77.52908231
 _______________________________________________________________
 Fermi energy                               :         0.18011426
 Kinetic energy                             :        75.01371411
 Coulomb energy                             :      -141.67186583
 Exchange energy                            :       -10.45168910
 Correlation energy                         :        -0.41924148
 
 DOS at Fermi energy (states/Ha/cell)       :         1.04625487
 
 Electron charges :
     core                                   :         4.00000000
     core leakage                           :         0.00129371
     valence                                :         8.00000000
     interstitial                           :         4.62361280
     charge in muffin-tin spheres :
                  atom     1     C          :         3.68819360
                  atom     2     C          :         3.68819360
     total charge in muffin-tins            :         7.37638720
     total charge                           :        12.00000000
 
 Wall time (seconds)                        :       352.05
 
 RMS change in effective potential (target) :   1.60652      ( 0.100000E-05)
 Absolute change in total energy   (target) :  0.768461      ( 0.100000E-06)
 Charge distance                   (target) :  0.127101E-01  ( 0.100000E-04)
 Abs. change in max-nonIBS-force   (target) :  0.101034E-01  ( 0.250000E-05)
 
++++++++++++++++++++++++++++++++++++++++++++++++++++++++++++++++++++++++++++++++
| SCF iteration number :    3                                                  +
++++++++++++++++++++++++++++++++++++++++++++++++++++++++++++++++++++++++++++++++
 Total energy                               :       -76.98524873
 _______________________________________________________________
 Fermi energy                               :         0.19474538
 Kinetic energy                             :        75.37893019
 Coulomb energy                             :      -141.51949373
 Exchange energy                            :       -10.42473871
 Correlation energy                         :        -0.41994649
 
 DOS at Fermi energy (states/Ha/cell)       :         1.10057270
 
 Electron charges :
     core                                   :         4.00000000
     core leakage                           :         0.00130138
     valence                                :         8.00000000
     interstitial                           :         4.66891034
     charge in muffin-tin spheres :
                  atom     1     C          :         3.66554483
                  atom     2     C          :         3.66554483
     total charge in muffin-tins            :         7.33108966
     total charge                           :        12.00000000
 
 Wall time (seconds)                        :       528.43
 
 RMS change in effective potential (target) :   1.18521      ( 0.100000E-05)
 Absolute change in total energy   (target) :  0.543834      ( 0.100000E-06)
 Charge distance                   (target) :  0.935915E-02  ( 0.100000E-04)
 Abs. change in max-nonIBS-force   (target) :  0.451702E-02  ( 0.250000E-05)
 
++++++++++++++++++++++++++++++++++++++++++++++++++++++++++++++++++++++++++++++++
| SCF iteration number :    4                                                  +
++++++++++++++++++++++++++++++++++++++++++++++++++++++++++++++++++++++++++++++++
 Total energy                               :       -76.74881436
 _______________________________________________________________
 Fermi energy                               :         0.20050177
 Kinetic energy                             :        75.55247575
 Coulomb energy                             :      -141.47077394
 Exchange energy                            :       -10.41011052
 Correlation energy                         :        -0.42040565
 
 DOS at Fermi energy (states/Ha/cell)       :         1.13741309
 
 Electron charges :
     core                                   :         4.00000000
     core leakage                           :         0.00129359
     valence                                :         8.00000000
     interstitial                           :         4.69791766
     charge in muffin-tin spheres :
                  atom     1     C          :         3.65104117
                  atom     2     C          :         3.65104117
     total charge in muffin-tins            :         7.30208234
     total charge                           :        12.00000000
 
 Wall time (seconds)                        :       704.58
 
 RMS change in effective potential (target) :  0.653877E-01  ( 0.100000E-05)
 Absolute change in total energy   (target) :  0.236434      ( 0.100000E-06)
 Charge distance                   (target) :  0.653167E-02  ( 0.100000E-04)
 Abs. change in max-nonIBS-force   (target) :  0.542967E-02  ( 0.250000E-05)
 
++++++++++++++++++++++++++++++++++++++++++++++++++++++++++++++++++++++++++++++++
| SCF iteration number :    5                                                  +
++++++++++++++++++++++++++++++++++++++++++++++++++++++++++++++++++++++++++++++++
 Total energy                               :       -75.93812363
 _______________________________________________________________
 Fermi energy                               :         0.22133600
 Kinetic energy                             :        76.07337969
 Coulomb energy                             :      -141.21911378
 Exchange energy                            :       -10.37088497
 Correlation energy                         :        -0.42150458
 
 DOS at Fermi energy (states/Ha/cell)       :         1.23066835
 
 Electron charges :
     core                                   :         4.00000000
     core leakage                           :         0.00131293
     valence                                :         8.00000000
     interstitial                           :         4.76100192
     charge in muffin-tin spheres :
                  atom     1     C          :         3.61949904
                  atom     2     C          :         3.61949904
     total charge in muffin-tins            :         7.23899808
     total charge                           :        12.00000000
 
 Wall time (seconds)                        :       881.08
 
 RMS change in effective potential (target) :  0.327997E-01  ( 0.100000E-05)
 Absolute change in total energy   (target) :  0.810691      ( 0.100000E-06)
 Charge distance                   (target) :  0.128811E-01  ( 0.100000E-04)
 Abs. change in max-nonIBS-force   (target) :  0.355343E-02  ( 0.250000E-05)
 
++++++++++++++++++++++++++++++++++++++++++++++++++++++++++++++++++++++++++++++++
| SCF iteration number :    6                                                  +
++++++++++++++++++++++++++++++++++++++++++++++++++++++++++++++++++++++++++++++++
 Total energy                               :       -76.20548425
 _______________________________________________________________
 Fermi energy                               :         0.21460267
 Kinetic energy                             :        75.90201235
 Coulomb energy                             :      -141.30241925
 Exchange energy                            :       -10.38394342
 Correlation energy                         :        -0.42113394
 
 DOS at Fermi energy (states/Ha/cell)       :         1.19750650
 
 Electron charges :
     core                                   :         4.00000000
     core leakage                           :         0.00130676
     valence                                :         8.00000000
     interstitial                           :         4.73994850
     charge in muffin-tin spheres :
                  atom     1     C          :         3.63002575
                  atom     2     C          :         3.63002575
     total charge in muffin-tins            :         7.26005150
     total charge                           :        12.00000000
 
 Wall time (seconds)                        :      1057.21
 
 RMS change in effective potential (target) :  0.607501E-03  ( 0.100000E-05)
 Absolute change in total energy   (target) :  0.267361      ( 0.100000E-06)
 Charge distance                   (target) :  0.433664E-02  ( 0.100000E-04)
 Abs. change in max-nonIBS-force   (target) :  0.167103E-02  ( 0.250000E-05)
 
++++++++++++++++++++++++++++++++++++++++++++++++++++++++++++++++++++++++++++++++
| SCF iteration number :    7                                                  +
++++++++++++++++++++++++++++++++++++++++++++++++++++++++++++++++++++++++++++++++
 Total energy                               :       -76.20638700
 _______________________________________________________________
 Fermi energy                               :         0.21457550
 Kinetic energy                             :        75.90171801
 Coulomb energy                             :      -141.30299034
 Exchange energy                            :       -10.38398341
 Correlation energy                         :        -0.42113126
 
 DOS at Fermi energy (states/Ha/cell)       :         1.19759047
 
 Electron charges :
     core                                   :         4.00000000
     core leakage                           :         0.00130665
     valence                                :         8.00000000
     interstitial                           :         4.73989848
     charge in muffin-tin spheres :
                  atom     1     C          :         3.63005076
                  atom     2     C          :         3.63005076
     total charge in muffin-tins            :         7.26010152
     total charge                           :        12.00000000
 
 Wall time (seconds)                        :      1232.58
 
 RMS change in effective potential (target) :  0.156399E-03  ( 0.100000E-05)
 Absolute change in total energy   (target) :  0.902745E-03  ( 0.100000E-06)
 Charge distance                   (target) :  0.187008E-04  ( 0.100000E-04)
 Abs. change in max-nonIBS-force   (target) :  0.252870E-04  ( 0.250000E-05)
 
++++++++++++++++++++++++++++++++++++++++++++++++++++++++++++++++++++++++++++++++
| SCF iteration number :    8                                                  +
++++++++++++++++++++++++++++++++++++++++++++++++++++++++++++++++++++++++++++++++
 Total energy                               :       -76.20704693
 _______________________________________________________________
 Fermi energy                               :         0.21455813
 Kinetic energy                             :        75.90121759
 Coulomb energy                             :      -141.30312032
 Exchange energy                            :       -10.38401352
 Correlation energy                         :        -0.42113069
 
 DOS at Fermi energy (states/Ha/cell)       :         1.19748148
 
 Electron charges :
     core                                   :         4.00000000
     core leakage                           :         0.00130665
     valence                                :         8.00000000
     interstitial                           :         4.73984635
     charge in muffin-tin spheres :
                  atom     1     C          :         3.63007682
                  atom     2     C          :         3.63007682
     total charge in muffin-tins            :         7.26015365
     total charge                           :        12.00000000
 
 Wall time (seconds)                        :      1408.09
 
 RMS change in effective potential (target) :  0.216497E-04  ( 0.100000E-05)
 Absolute change in total energy   (target) :  0.659937E-03  ( 0.100000E-06)
 Charge distance                   (target) :  0.125600E-04  ( 0.100000E-04)
 Abs. change in max-nonIBS-force   (target) :  0.670746E-05  ( 0.250000E-05)
 
++++++++++++++++++++++++++++++++++++++++++++++++++++++++++++++++++++++++++++++++
| SCF iteration number :    9                                                  +
++++++++++++++++++++++++++++++++++++++++++++++++++++++++++++++++++++++++++++++++
 Total energy                               :       -76.20691613
 _______________________________________________________________
 Fermi energy                               :         0.21456138
 Kinetic energy                             :        75.90129945
 Coulomb energy                             :      -141.30307753
 Exchange energy                            :       -10.38400718
 Correlation energy                         :        -0.42113087
 
 DOS at Fermi energy (states/Ha/cell)       :         1.19749587
 
 Electron charges :
     core                                   :         4.00000000
     core leakage                           :         0.00130665
     valence                                :         8.00000000
     interstitial                           :         4.73985646
     charge in muffin-tin spheres :
                  atom     1     C          :         3.63007177
                  atom     2     C          :         3.63007177
     total charge in muffin-tins            :         7.26014354
     total charge                           :        12.00000000
 
 Wall time (seconds)                        :      1585.66
 
 RMS change in effective potential (target) :  0.158361E-05  ( 0.100000E-05)
 Absolute change in total energy   (target) :  0.130807E-03  ( 0.100000E-06)
 Charge distance                   (target) :  0.203936E-05  ( 0.100000E-04)
 Abs. change in max-nonIBS-force   (target) :  0.605982E-06  ( 0.250000E-05)
 
++++++++++++++++++++++++++++++++++++++++++++++++++++++++++++++++++++++++++++++++
| SCF iteration number :   10                                                  +
++++++++++++++++++++++++++++++++++++++++++++++++++++++++++++++++++++++++++++++++
 Total energy                               :       -76.20691646
 _______________________________________________________________
 Fermi energy                               :         0.21456139
 Kinetic energy                             :        75.90129973
 Coulomb energy                             :      -141.30307812
 Exchange energy                            :       -10.38400721
 Correlation energy                         :        -0.42113087
 
 DOS at Fermi energy (states/Ha/cell)       :         1.19749588
 
 Electron charges :
     core                                   :         4.00000000
     core leakage                           :         0.00130665
     valence                                :         8.00000000
     interstitial                           :         4.73985643
     charge in muffin-tin spheres :
                  atom     1     C          :         3.63007178
                  atom     2     C          :         3.63007178
     total charge in muffin-tins            :         7.26014357
     total charge                           :        12.00000000
 
 Wall time (seconds)                        :      1761.75
 
 RMS change in effective potential (target) :  0.588237E-07  ( 0.100000E-05)
 Absolute change in total energy   (target) :  0.335503E-06  ( 0.100000E-06)
 Charge distance                   (target) :  0.848792E-07  ( 0.100000E-04)
 Abs. change in max-nonIBS-force   (target) :  0.893348E-06  ( 0.250000E-05)
 
++++++++++++++++++++++++++++++++++++++++++++++++++++++++++++++++++++++++++++++++
| SCF iteration number :   11                                                  +
++++++++++++++++++++++++++++++++++++++++++++++++++++++++++++++++++++++++++++++++
 Total energy                               :       -76.20691647
 _______________________________________________________________
 Fermi energy                               :         0.21456138
 Kinetic energy                             :        75.90129973
 Coulomb energy                             :      -141.30307812
 Exchange energy                            :       -10.38400721
 Correlation energy                         :        -0.42113087
 
 DOS at Fermi energy (states/Ha/cell)       :         1.19749591
 
 Electron charges :
     core                                   :         4.00000000
     core leakage                           :         0.00130665
     valence                                :         8.00000000
     interstitial                           :         4.73985643
     charge in muffin-tin spheres :
                  atom     1     C          :         3.63007178
                  atom     2     C          :         3.63007178
     total charge in muffin-tins            :         7.26014357
     total charge                           :        12.00000000
 
 Wall time (seconds)                        :      1936.69
 
 RMS change in effective potential (target) :  0.209290E-07  ( 0.100000E-05)
 Absolute change in total energy   (target) :  0.396679E-08  ( 0.100000E-06)
 Charge distance                   (target) :  0.294989E-07  ( 0.100000E-04)
 Abs. change in max-nonIBS-force   (target) :  0.459832E-06  ( 0.250000E-05)
 
++++++++++++++++++++++++++++++++++++++++++++++++++++++++++++++++++++++++++++++++
| Convergence targets achieved. Performing final SCF iteration                 +
++++++++++++++++++++++++++++++++++++++++++++++++++++++++++++++++++++++++++++++++
 Total energy                               :       -76.21525834
 _______________________________________________________________
 Fermi energy                               :         0.21456138
 Kinetic energy                             :        75.90129973
 Coulomb energy                             :      -141.30307812
 Exchange energy                            :       -10.38400721
 Correlation energy                         :        -0.42113087
 DFT-D2 dispersion correction               :        -0.00834187
 
 DOS at Fermi energy (states/Ha/cell)       :         1.19749591
 
 Electron charges :
     core                                   :         4.00000000
     core leakage                           :         0.00130665
     valence                                :         8.00000000
     interstitial                           :         4.73985643
     charge in muffin-tin spheres :
                  atom     1     C          :         3.63007178
                  atom     2     C          :         3.63007178
     total charge in muffin-tins            :         7.26014357
     total charge                           :        12.00000000
 
++++++++++++++++++++++++++++++++++++++++++++++++++++++++++++++++++++++++++++++++
| Self-consistent loop stopped                                                 +
++++++++++++++++++++++++++++++++++++++++++++++++++++++++++++++++++++++++++++++++
 STATE.OUT is written
 
--------------------------------------------------------------------------------
| Writing atomic positions and forces                                          -
--------------------------------------------------------------------------------
 
 Atomic positions (lattice) :
 atom     1   C  :     0.00000000    0.00000000    0.00000000
 atom     2   C  :     0.33333333    0.33333333    0.00000000
 
 Total atomic forces including IBS (cartesian) :
 atom     1   C  :     0.00000000   -0.00204766   -0.00002886
 atom     2   C  :     0.00000000    0.00204766    0.00002886
 
 Atomic force components including IBS (cartesian) :
 atom     1   C  :     0.00000000    0.00057243   -0.00005935   HF force
                 :     0.00000000   -0.00259229    0.00001251   core correction
                 :     0.00000000   -0.00006941    0.00001761   IBS correction
                 :     0.00000000    0.00004161    0.00000037   DFT-D2 force
 atom     2   C  :     0.00000000   -0.00057243    0.00005935   HF force
                 :     0.00000000    0.00259229   -0.00001251   core correction
                 :     0.00000000    0.00006941   -0.00001761   IBS correction
                 :     0.00000000   -0.00004161   -0.00000037   DFT-D2 force
 
********************************************************************************
| Groundstate module stopped                                                   *
********************************************************************************
 
********************************************************************************
| Structure-optimization module started                                        *
********************************************************************************
 Output level for this task is set to normal
 
 Maximum displacement tau_BFGS   is         :         0.3000
 Maximum displacement tau_newton is         :         0.8000
 
++++++++++++++++++++++++++++++++++++++++++++++++++++++++++++++++++++++++++++++++
| Use harmonic method for optimizing atomic positions                          +
++++++++++++++++++++++++++++++++++++++++++++++++++++++++++++++++++++++++++++++++
 
--------------------------------------------------------------------------------
| Optimization step 0: Initialize optimization                                 -
--------------------------------------------------------------------------------
 Maximum force magnitude           (target) :         0.00204787  (  0.00001000)
 Total energy at this optimization step     :       -76.21525834
 
 Atomic positions at this step (lattice) :
 atom     1   C  :     0.00000000    0.00000000    0.00000000
 atom     2   C  :     0.33333333    0.33333333    0.00000000
 
 Total atomic forces including IBS (cartesian) :
 atom     1   C  :     0.00000000   -0.00204766   -0.00002886
 atom     2   C  :     0.00000000    0.00204766    0.00002886
 
--------------------------------------------------------------------------------
| Optimization step    1    (method = harmonic)                                -
--------------------------------------------------------------------------------
 Number of scf iterations                   :        12  (full newton step)
 Maximum force magnitude           (target) :         0.00026872  (  0.00001000)
 Total energy at this optimization step     :       -76.21526198
 
 Atomic positions at this step (lattice) :
 atom     1   C  :     0.00000000    0.00000000    0.00000000
 atom     2   C  :     0.33373977    0.33373977    0.00000204
 
 Total atomic forces including IBS (cartesian) :
 atom     1   C  :     0.00000000   -0.00026858   -0.00000875
 atom     2   C  :     0.00000000    0.00026858    0.00000875
 
 Time spent in this optimization step       :      2252.45 seconds
 
--------------------------------------------------------------------------------
| Optimization step    2    (method = harmonic)                                -
--------------------------------------------------------------------------------
 Number of scf iterations                   :        10  (full harmonic step)
 Maximum force magnitude           (target) :         0.00000352  (  0.00001000)
 Total energy at this optimization step     :       -76.21526202
 
 Atomic positions at this step (lattice) :
 atom     1   C  :     0.00000000    0.00000000    0.00000000
 atom     2   C  :     0.33380111    0.33380111    0.00000434
 
 Total atomic forces including IBS (cartesian) :
 atom     1   C  :     0.00000000   -0.00000060   -0.00000347
 atom     2   C  :     0.00000000    0.00000060    0.00000347
 
 Time spent in this optimization step       :      1915.26 seconds
 
++++++++++++++++++++++++++++++++++++++++++++++++++++++++++++++++++++++++++++++++
| Force convergence target achieved                                            +
++++++++++++++++++++++++++++++++++++++++++++++++++++++++++++++++++++++++++++++++
 Total energy                               :       -76.21526202
 _______________________________________________________________
 Fermi energy                               :         0.21456147
 Kinetic energy                             :        75.90114776
 Coulomb energy                             :      -141.30295642
 Exchange energy                            :       -10.38398055
 Correlation energy                         :        -0.42113111
 DFT-D2 dispersion correction               :        -0.00834171
 
 DOS at Fermi energy (states/Ha/cell)       :         1.19667612
 
 Electron charges :
     core                                   :         4.00000000
     core leakage                           :         0.00130665
     valence                                :         8.00000000
     interstitial                           :         4.73993195
     charge in muffin-tin spheres :
                  atom     1     C          :         3.63003402
                  atom     2     C          :         3.63003402
     total charge in muffin-tins            :         7.26006805
     total charge                           :        12.00000000
 
 Optimized atomic positions (lattice) :
 atom     1   C  :     0.00000000    0.00000000    0.00000000
 atom     2   C  :     0.33380111    0.33380111    0.00000434
 
 Total atomic forces including IBS (cartesian) :
 atom     1   C  :     0.00000000   -0.00000060   -0.00000347
 atom     2   C  :     0.00000000    0.00000060    0.00000347
 
 Atomic force components including IBS (cartesian) :
 atom     1   C  :     0.00000000    0.00263425   -0.00003576   HF force
                 :     0.00000000   -0.00259320    0.00001415   core correction
                 :     0.00000000   -0.00008544    0.00001777   IBS correction
                 :     0.00000000    0.00004379    0.00000037   DFT-D2 force
 atom     2   C  :     0.00000000   -0.00263425    0.00003576   HF force
                 :     0.00000000    0.00259320   -0.00001415   core correction
                 :     0.00000000    0.00008544   -0.00001777   IBS correction
                 :     0.00000000   -0.00004379   -0.00000037   DFT-D2 force
 
********************************************************************************
| Structure-optimization module stopped                                        *
********************************************************************************
 
 Total time spent (seconds)                 :      6423.14
 
================================================================================
| EXCITING BORON stopped                                                       =
================================================================================
