================================================================================
| EXCITING CARBON started                                                      =
| version hash id:                                                             =
|                                                                              =
| Date (DD-MM-YYYY) : 22-12-2016                                               =
| Time (hh:mm:ss)   : 13:19:06                                                 =
|                                                                              =
| All units are atomic (Hartree, Bohr, etc.)                                   =
================================================================================

********************************************************************************
| Structural optimisation starting from atomic densities                       *
********************************************************************************

++++++++++++++++++++++++++++++++++++++++++++++++++++++++++++++++++++++++++++++++
| Starting initialization                                                      +
++++++++++++++++++++++++++++++++++++++++++++++++++++++++++++++++++++++++++++++++

 Lattice vectors (cartesian) :
      3.4575299921      3.4575299921      0.0000000000
      3.4575299921      0.0000000000      3.3582500000
      0.0000000000      3.4575299921      3.3582500000

 Reciprocal lattice vectors (cartesian) :
      0.9086233990      0.9086233990     -0.9354850454
      0.9086233990     -0.9086233990      0.9354850454
     -0.9086233990      0.9086233990      0.9354850454

 Unit cell volume                           :      80.2924909051
 Brillouin zone volume                      :       3.0893326468

 Species :    1 (C)
     parameters loaded from                 :    C.xml
     name                                   :    carbon
     nuclear charge                         :      -6.00000000
     electronic charge                      :       6.00000000
     atomic mass                            :   21894.16673000
     muffin-tin radius                      :       1.30000000
     # of radial points in muffin-tin       :     250

     atomic positions (lattice) :
       1 :   0.00000000  0.00000000  0.00000000
       2 :   0.25000000  0.25000000  0.25000000

 Total number of atoms per unit cell        :       2

 Spin treatment                             :    spin-unpolarised

 Number of Bravais lattice symmetries       :      16
 Number of crystal symmetries               :      16

 k-point grid                               :       6    6    6
 Total number of k-points                   :      30
 k-point set is reduced with crystal symmetries

 R^MT_min * |G+k|_max (rgkmax)              :       7.00000000
 Species with R^MT_min                      :       1 (C)
 Maximum |G+k| for APW functions            :       5.38461538
 Maximum |G| for potential and density      :      18.00000000

 G-vector grid sizes                        :      30    30    30
 Total number of G-vectors                  :    7867

 Maximum angular momentum used for
     APW functions                          :       8
     computing H and O matrix elements      :       8
     potential and density                  :       8
     inner part of muffin-tin               :       2

 Total nuclear charge                       :     -12.00000000
 Total electronic charge                    :      12.00000000
 Total core charge                          :       4.00000000
 Total valence charge                       :       8.00000000

 Number of empty states                     :       5
 Total number of valence states             :      10

 Maximum Hamiltonian size                   :     230
 Maximum number of plane-waves              :     222
 Total number of local-orbitals             :       8

 Exchange-correlation type                  :      22
     PBEsol, Phys. Rev. Lett. 100, 136406 (2008)
     Generalised gradient approximation (GGA)

 Smearing scheme                            :    Gaussian
 Smearing width                             :       0.00010000

 Using multisecant Broyden potential mixing

++++++++++++++++++++++++++++++++++++++++++++++++++++++++++++++++++++++++++++++++
| Ending initialization                                                        +
++++++++++++++++++++++++++++++++++++++++++++++++++++++++++++++++++++++++++++++++

********************************************************************************
| Groundstate module started                                                   *
********************************************************************************
 Output level for this task is set to normal

++++++++++++++++++++++++++++++++++++++++++++++++++++++++++++++++++++++++++++++++
| Self-consistent loop started                                                 +
++++++++++++++++++++++++++++++++++++++++++++++++++++++++++++++++++++++++++++++++
 Density and potential initialised from atomic data


++++++++++++++++++++++++++++++++++++++++++++++++++++++++++++++++++++++++++++++++
| SCF iteration number :    1                                                  +
++++++++++++++++++++++++++++++++++++++++++++++++++++++++++++++++++++++++++++++++
 Total energy                               :       -76.74958226
 _______________________________________________________________
 Fermi energy                               :         0.44630117
 Kinetic energy                             :        74.89243131
 Coulomb energy                             :      -141.10674158
 Exchange energy                            :       -10.03979543
 Correlation energy                         :        -0.49547655

 DOS at Fermi energy (states/Ha/cell)       :         0.00000000

 Electron charges :
     core                                   :         4.00000000
     core leakage                           :         0.00056559
     valence                                :         8.00000000
     interstitial                           :         4.13405982
     charge in muffin-tin spheres :
                  atom     1     C          :         3.93297009
                  atom     2     C          :         3.93297009
     total charge in muffin-tins            :         7.86594018
     total charge                           :        12.00000000

 Estimated fundamental gap                  :         0.14357287
        valence-band maximum at    1      0.0000  0.0000  0.0000
     conduction-band minimum at   26      0.0000  0.3333  0.3333

 Wall time (seconds)                        :         6.70

++++++++++++++++++++++++++++++++++++++++++++++++++++++++++++++++++++++++++++++++
| SCF iteration number :    2                                                  +
++++++++++++++++++++++++++++++++++++++++++++++++++++++++++++++++++++++++++++++++
 Total energy                               :       -76.45538542
 _______________________________________________________________
 Fermi energy                               :         0.45714004
 Kinetic energy                             :        75.05530621
 Coulomb energy                             :      -140.99096557
 Exchange energy                            :       -10.02320386
 Correlation energy                         :        -0.49652221

 DOS at Fermi energy (states/Ha/cell)       :         0.00000000

 Electron charges :
     core                                   :         4.00000000
     core leakage                           :         0.00056895
     valence                                :         8.00000000
     interstitial                           :         4.16966649
     charge in muffin-tin spheres :
                  atom     1     C          :         3.91516676
                  atom     2     C          :         3.91516676
     total charge in muffin-tins            :         7.83033351
     total charge                           :        12.00000000

 Estimated fundamental gap                  :         0.13586358
        valence-band maximum at    1      0.0000  0.0000  0.0000
     conduction-band minimum at   26      0.0000  0.3333  0.3333

 Wall time (seconds)                        :        12.60

 RMS change in effective potential (target) :   2.34628      ( 0.100000E-05)
 Absolute change in total energy   (target) :  0.294197      ( 0.100000E-05)
 Charge distance                   (target) :  0.684138E-02  ( 0.100000E-04)
 Abs. change in max-nonIBS-force   (target) :   0.00000      ( 0.500000E-04)

++++++++++++++++++++++++++++++++++++++++++++++++++++++++++++++++++++++++++++++++
| SCF iteration number :    3                                                  +
++++++++++++++++++++++++++++++++++++++++++++++++++++++++++++++++++++++++++++++++
 Total energy                               :       -76.24067601
 _______________________________________________________________
 Fermi energy                               :         0.46514679
 Kinetic energy                             :        75.17431005
 Coulomb energy                             :      -140.90674952
 Exchange energy                            :       -10.01091481
 Correlation energy                         :        -0.49732174

 DOS at Fermi energy (states/Ha/cell)       :         0.00000000

 Electron charges :
     core                                   :         4.00000000
     core leakage                           :         0.00057111
     valence                                :         8.00000000
     interstitial                           :         4.19663459
     charge in muffin-tin spheres :
                  atom     1     C          :         3.90168271
                  atom     2     C          :         3.90168271
     total charge in muffin-tins            :         7.80336541
     total charge                           :        12.00000000

 Estimated fundamental gap                  :         0.12995186
        valence-band maximum at    1      0.0000  0.0000  0.0000
     conduction-band minimum at   26      0.0000  0.3333  0.3333

 Wall time (seconds)                        :        18.46

 RMS change in effective potential (target) :   1.71808      ( 0.100000E-05)
 Absolute change in total energy   (target) :  0.214709      ( 0.100000E-05)
 Charge distance                   (target) :  0.521790E-02  ( 0.100000E-04)
 Abs. change in max-nonIBS-force   (target) :   0.00000      ( 0.500000E-04)

++++++++++++++++++++++++++++++++++++++++++++++++++++++++++++++++++++++++++++++++
| SCF iteration number :    4                                                  +
++++++++++++++++++++++++++++++++++++++++++++++++++++++++++++++++++++++++++++++++
 Total energy                               :       -76.01201098
 _______________________________________________________________
 Fermi energy                               :         0.47568885
 Kinetic energy                             :        75.31226660
 Coulomb energy                             :      -140.83019068
 Exchange energy                            :        -9.99558084
 Correlation energy                         :        -0.49850606

 DOS at Fermi energy (states/Ha/cell)       :         0.00000000

 Electron charges :
     core                                   :         4.00000000
     core leakage                           :         0.00056924
     valence                                :         8.00000000
     interstitial                           :         4.23528010
     charge in muffin-tin spheres :
                  atom     1     C          :         3.88235995
                  atom     2     C          :         3.88235995
     total charge in muffin-tins            :         7.76471990
     total charge                           :        12.00000000

 Estimated fundamental gap                  :         0.12069260
        valence-band maximum at    1      0.0000  0.0000  0.0000
     conduction-band minimum at   26      0.0000  0.3333  0.3333

 Wall time (seconds)                        :        24.31

 RMS change in effective potential (target) :  0.384137E-01  ( 0.100000E-05)
 Absolute change in total energy   (target) :  0.228665      ( 0.100000E-05)
 Charge distance                   (target) :  0.785266E-02  ( 0.100000E-04)
 Abs. change in max-nonIBS-force   (target) :   0.00000      ( 0.500000E-04)

++++++++++++++++++++++++++++++++++++++++++++++++++++++++++++++++++++++++++++++++
| SCF iteration number :    5                                                  +
++++++++++++++++++++++++++++++++++++++++++++++++++++++++++++++++++++++++++++++++
 Total energy                               :       -75.83530380
 _______________________________________________________________
 Fermi energy                               :         0.48092082
 Kinetic energy                             :        75.39942306
 Coulomb energy                             :      -140.74918930
 Exchange energy                            :        -9.98653181
 Correlation energy                         :        -0.49900575

 DOS at Fermi energy (states/Ha/cell)       :         0.00000000

 Electron charges :
     core                                   :         4.00000000
     core leakage                           :         0.00057345
     valence                                :         8.00000000
     interstitial                           :         4.25262947
     charge in muffin-tin spheres :
                  atom     1     C          :         3.87368527
                  atom     2     C          :         3.87368527
     total charge in muffin-tins            :         7.74737053
     total charge                           :        12.00000000

 Estimated fundamental gap                  :         0.11735015
        valence-band maximum at    1      0.0000  0.0000  0.0000
     conduction-band minimum at   26      0.0000  0.3333  0.3333

 Wall time (seconds)                        :        30.15

 RMS change in effective potential (target) :  0.203471E-01  ( 0.100000E-05)
 Absolute change in total energy   (target) :  0.176707      ( 0.100000E-05)
 Charge distance                   (target) :  0.319194E-02  ( 0.100000E-04)
 Abs. change in max-nonIBS-force   (target) :   0.00000      ( 0.500000E-04)

++++++++++++++++++++++++++++++++++++++++++++++++++++++++++++++++++++++++++++++++
| SCF iteration number :    6                                                  +
++++++++++++++++++++++++++++++++++++++++++++++++++++++++++++++++++++++++++++++++
 Total energy                               :       -75.88981632
 _______________________________________________________________
 Fermi energy                               :         0.47934378
 Kinetic energy                             :        75.37311048
 Coulomb energy                             :      -140.77470014
 Exchange energy                            :        -9.98937866
 Correlation energy                         :        -0.49884801

 DOS at Fermi energy (states/Ha/cell)       :         0.00000000

 Electron charges :
     core                                   :         4.00000000
     core leakage                           :         0.00057214
     valence                                :         8.00000000
     interstitial                           :         4.24720117
     charge in muffin-tin spheres :
                  atom     1     C          :         3.87639942
                  atom     2     C          :         3.87639942
     total charge in muffin-tins            :         7.75279883
     total charge                           :        12.00000000

 Estimated fundamental gap                  :         0.11840896
        valence-band maximum at    1      0.0000  0.0000  0.0000
     conduction-band minimum at   26      0.0000  0.3333  0.3333

 Wall time (seconds)                        :        36.03

 RMS change in effective potential (target) :  0.312984E-03  ( 0.100000E-05)
 Absolute change in total energy   (target) :  0.545125E-01  ( 0.100000E-05)
 Charge distance                   (target) :  0.100211E-02  ( 0.100000E-04)
 Abs. change in max-nonIBS-force   (target) :   0.00000      ( 0.500000E-04)

++++++++++++++++++++++++++++++++++++++++++++++++++++++++++++++++++++++++++++++++
| SCF iteration number :    7                                                  +
++++++++++++++++++++++++++++++++++++++++++++++++++++++++++++++++++++++++++++++++
 Total energy                               :       -75.89123944
 _______________________________________________________________
 Fermi energy                               :         0.47930125
 Kinetic energy                             :        75.37237669
 Coulomb energy                             :      -140.77532462
 Exchange energy                            :        -9.98944724
 Correlation energy                         :        -0.49884428

 DOS at Fermi energy (states/Ha/cell)       :         0.00000000

 Electron charges :
     core                                   :         4.00000000
     core leakage                           :         0.00057210
     valence                                :         8.00000000
     interstitial                           :         4.24706901
     charge in muffin-tin spheres :
                  atom     1     C          :         3.87646550
                  atom     2     C          :         3.87646550
     total charge in muffin-tins            :         7.75293099
     total charge                           :        12.00000000

 Estimated fundamental gap                  :         0.11843335
        valence-band maximum at    1      0.0000  0.0000  0.0000
     conduction-band minimum at   26      0.0000  0.3333  0.3333

 Wall time (seconds)                        :        41.88

 RMS change in effective potential (target) :  0.413134E-04  ( 0.100000E-05)
 Absolute change in total energy   (target) :  0.142312E-02  ( 0.100000E-05)
 Charge distance                   (target) :  0.239136E-04  ( 0.100000E-04)
 Abs. change in max-nonIBS-force   (target) :   0.00000      ( 0.500000E-04)

++++++++++++++++++++++++++++++++++++++++++++++++++++++++++++++++++++++++++++++++
| SCF iteration number :    8                                                  +
++++++++++++++++++++++++++++++++++++++++++++++++++++++++++++++++++++++++++++++++
 Total energy                               :       -75.89112452
 _______________________________________________________________
 Fermi energy                               :         0.47930430
 Kinetic energy                             :        75.37243194
 Coulomb energy                             :      -140.77527039
 Exchange energy                            :        -9.98944148
 Correlation energy                         :        -0.49884458

 DOS at Fermi energy (states/Ha/cell)       :         0.00000000

 Electron charges :
     core                                   :         4.00000000
     core leakage                           :         0.00057211
     valence                                :         8.00000000
     interstitial                           :         4.24707968
     charge in muffin-tin spheres :
                  atom     1     C          :         3.87646016
                  atom     2     C          :         3.87646016
     total charge in muffin-tins            :         7.75292032
     total charge                           :        12.00000000

 Estimated fundamental gap                  :         0.11843140
        valence-band maximum at    1      0.0000  0.0000  0.0000
     conduction-band minimum at   26      0.0000  0.3333  0.3333

 Wall time (seconds)                        :        47.75

 RMS change in effective potential (target) :  0.265958E-05  ( 0.100000E-05)
 Absolute change in total energy   (target) :  0.114929E-03  ( 0.100000E-05)
 Charge distance                   (target) :  0.191643E-05  ( 0.100000E-04)
 Abs. change in max-nonIBS-force   (target) :   0.00000      ( 0.500000E-04)

++++++++++++++++++++++++++++++++++++++++++++++++++++++++++++++++++++++++++++++++
| SCF iteration number :    9                                                  +
++++++++++++++++++++++++++++++++++++++++++++++++++++++++++++++++++++++++++++++++
 Total energy                               :       -75.89112468
 _______________________________________________________________
 Fermi energy                               :         0.47930434
 Kinetic energy                             :        75.37243239
 Coulomb energy                             :      -140.77527098
 Exchange energy                            :        -9.98944150
 Correlation energy                         :        -0.49884458

 DOS at Fermi energy (states/Ha/cell)       :         0.00000000

 Electron charges :
     core                                   :         4.00000000
     core leakage                           :         0.00057211
     valence                                :         8.00000000
     interstitial                           :         4.24707972
     charge in muffin-tin spheres :
                  atom     1     C          :         3.87646014
                  atom     2     C          :         3.87646014
     total charge in muffin-tins            :         7.75292028
     total charge                           :        12.00000000

 Estimated fundamental gap                  :         0.11843139
        valence-band maximum at    1      0.0000  0.0000  0.0000
     conduction-band minimum at   26      0.0000  0.3333  0.3333

 Wall time (seconds)                        :        53.61

 RMS change in effective potential (target) :  0.293969E-06  ( 0.100000E-05)
 Absolute change in total energy   (target) :  0.162951E-06  ( 0.100000E-05)
 Charge distance                   (target) :  0.138572E-07  ( 0.100000E-04)
 Abs. change in max-nonIBS-force   (target) :   0.00000      ( 0.500000E-04)

++++++++++++++++++++++++++++++++++++++++++++++++++++++++++++++++++++++++++++++++
| SCF iteration number :   10                                                  +
++++++++++++++++++++++++++++++++++++++++++++++++++++++++++++++++++++++++++++++++
 Total energy                               :       -75.89112506
 _______________________________________________________________
 Fermi energy                               :         0.47930432
 Kinetic energy                             :        75.37243213
 Coulomb energy                             :      -140.77527109
 Exchange energy                            :        -9.98944152
 Correlation energy                         :        -0.49884458

 DOS at Fermi energy (states/Ha/cell)       :         0.00000000

 Electron charges :
     core                                   :         4.00000000
     core leakage                           :         0.00057211
     valence                                :         8.00000000
     interstitial                           :         4.24707967
     charge in muffin-tin spheres :
                  atom     1     C          :         3.87646017
                  atom     2     C          :         3.87646017
     total charge in muffin-tins            :         7.75292033
     total charge                           :        12.00000000

 Estimated fundamental gap                  :         0.11843140
        valence-band maximum at    1      0.0000  0.0000  0.0000
     conduction-band minimum at   26      0.0000  0.3333  0.3333

 Wall time (seconds)                        :        59.49

 RMS change in effective potential (target) :  0.269391E-07  ( 0.100000E-05)
 Absolute change in total energy   (target) :  0.381497E-06  ( 0.100000E-05)
 Charge distance                   (target) :  0.958802E-08  ( 0.100000E-04)
 Abs. change in max-nonIBS-force   (target) :   0.00000      ( 0.500000E-04)
                                                                                
++++++++++++++++++++++++++++++++++++++++++++++++++++++++++++++++++++++++++++++++
| Convergency criteria checked for the last 2 iterations                       +
| Convergence targets achieved. Performing final SCF iteration                 +
++++++++++++++++++++++++++++++++++++++++++++++++++++++++++++++++++++++++++++++++
 Total energy                               :       -75.89112503
 _______________________________________________________________
 Fermi energy                               :         0.47930433
 Kinetic energy                             :        75.37243215
 Coulomb energy                             :      -140.77527108
 Exchange energy                            :        -9.98944152
 Correlation energy                         :        -0.49884458

 DOS at Fermi energy (states/Ha/cell)       :         0.00000000

 Electron charges :
     core                                   :         4.00000000
     core leakage                           :         0.00057211
     valence                                :         8.00000000
     interstitial                           :         4.24707967
     charge in muffin-tin spheres :
                  atom     1     C          :         3.87646016
                  atom     2     C          :         3.87646016
     total charge in muffin-tins            :         7.75292033
     total charge                           :        12.00000000

 Estimated fundamental gap                  :         0.11843140
        valence-band maximum at    1      0.0000  0.0000  0.0000
     conduction-band minimum at   26      0.0000  0.3333  0.3333

++++++++++++++++++++++++++++++++++++++++++++++++++++++++++++++++++++++++++++++++
| Self-consistent loop stopped                                                 +
++++++++++++++++++++++++++++++++++++++++++++++++++++++++++++++++++++++++++++++++
 STATE.OUT is written

--------------------------------------------------------------------------------
| Writing atomic positions and forces                                          -
--------------------------------------------------------------------------------

 Atomic positions (lattice) :
 atom     1   C  :     0.00000000    0.00000000    0.00000000
 atom     2   C  :     0.25000000    0.25000000    0.25000000

 Total atomic forces including IBS (cartesian) :
 atom     1   C  :     0.00000000    0.00000000    0.00000000
 atom     2   C  :     0.00000000   -0.00000000   -0.00000000

 Atomic force components including IBS (cartesian) :
 atom     1   C  :    -0.00000000    0.00000000    0.00000000   HF force
                 :    -0.00000000   -0.00000000    0.00000000   core correction
                 :    -0.00000000    0.00000000    0.00000000   IBS correction
 atom     2   C  :     0.00000000   -0.00000000    0.00000000   HF force
                 :     0.00000000    0.00000000   -0.00000000   core correction
                 :     0.00000000   -0.00000000    0.00000000   IBS correction

********************************************************************************
| Groundstate module stopped                                                   *
********************************************************************************

********************************************************************************
| Structure-optimization module started                                        *
********************************************************************************
 Output level for this task is set to normal

 Maximum displacement tau_BFGS   is         :         0.3000
 Maximum displacement tau_newton is         :         0.2000
 Maximum force target reached already at the initial configuration

********************************************************************************
| Structure-optimization module stopped                                        *
********************************************************************************

 Total time spent (seconds)                 :        66.88

================================================================================
| EXCITING CARBON stopped                                                      =
================================================================================
