================================================================================
| EXCITING BORON started                                                       =
| version hash id:                                                             =
| MPI version using     16 processor(s)                                        =
|                                                                              =
| Date (DD-MM-YYYY) : 12-08-2015                                               =
| Time (hh:mm:ss)   : 18:53:06                                                 =
|                                                                              =
| All units are atomic (Hartree, Bohr, etc.)                                   =
================================================================================
 
********************************************************************************
| Structural optimisation starting from atomic densities                       *
********************************************************************************
 
++++++++++++++++++++++++++++++++++++++++++++++++++++++++++++++++++++++++++++++++
| Starting initialization                                                      +
++++++++++++++++++++++++++++++++++++++++++++++++++++++++++++++++++++++++++++++++
 
 Lattice vectors (cartesian) :
      2.7227349219      4.3566576767      0.0000000000
     -2.1004826035      3.9974001332      0.0000000000
      0.0000000000      0.0000000000      6.0270970386
 
 Reciprocal lattice vectors (cartesian) :
      1.2536299095      0.6587351099      0.0000000000
     -1.3662971399      0.8538804773      0.0000000000
      0.0000000000      0.0000000000      1.0424894882
 
 Unit cell volume                           :     120.7525552598
 Brillouin zone volume                      :       2.0542026039
 
 Species :    1 (C)
     parameters loaded from                 :    C.xml
     name                                   :    carbon
     nuclear charge                         :      -6.00000000
     electronic charge                      :       6.00000000
     atomic mass                            :   21894.16673000
     muffin-tin radius                      :       1.20000000
     # of radial points in muffin-tin       :     250
 
     atomic positions (lattice) :
       1 :   0.00000000  0.00000000  0.00000000
       2 :   0.33333333  0.33333333  0.00000000
 
 Total number of atoms per unit cell        :       2
 
 Spin treatment                             :    spin-unpolarised
 
 Number of Bravais lattice symmetries       :       4
 Number of crystal symmetries               :       4
 
 k-point grid                               :      34   34   24
 Total number of k-points                   :    7540
 k-point set is reduced with crystal symmetries
 
 R^MT_min * |G+k|_max (rgkmax)              :       8.00000000
 Species with R^MT_min                      :       1 (C)
 Maximum |G+k| for APW functions            :       6.66666667
 Maximum |G| for potential and density      :      20.00000000
 
 G-vector grid sizes                        :      36    30    40
 Total number of G-vectors                  :   16329
 
 Maximum angular momentum used for
     APW functions                          :       8
     computing H and O matrix elements      :       8
     potential and density                  :       8
     inner part of muffin-tin               :       2
 
 Total nuclear charge                       :     -12.00000000
 Total electronic charge                    :      12.00000000
 Total core charge                          :       4.00000000
 Total valence charge                       :       8.00000000
 
 Number of empty states                     :       5
 Total number of valence states             :      10
 
 Maximum Hamiltonian size                   :     634
 Maximum number of plane-waves              :     626
 Total number of local-orbitals             :       8
 
 Exchange-correlation type                  :      20
     Perdew-Burke-Ernzerhof, Phys. Rev. Lett. 77, 3865 (1996)
     Generalised gradient approximation (GGA)
 
 Smearing scheme                            :    Gaussian
 Smearing width                             :       0.01000000
 
 Using multisecant Broyden potential mixing
 
++++++++++++++++++++++++++++++++++++++++++++++++++++++++++++++++++++++++++++++++
| Ending initialization                                                        +
++++++++++++++++++++++++++++++++++++++++++++++++++++++++++++++++++++++++++++++++
 
********************************************************************************
| Groundstate module started                                                   *
********************************************************************************
 Output level for this task is set to normal
 
++++++++++++++++++++++++++++++++++++++++++++++++++++++++++++++++++++++++++++++++
| Self-consistent loop started                                                 +
++++++++++++++++++++++++++++++++++++++++++++++++++++++++++++++++++++++++++++++++
 Density and potential initialised from atomic data
 
 
++++++++++++++++++++++++++++++++++++++++++++++++++++++++++++++++++++++++++++++++
| SCF iteration number :    1                                                  +
++++++++++++++++++++++++++++++++++++++++++++++++++++++++++++++++++++++++++++++++
 Total energy                               :       -77.89869246
 _______________________________________________________________
 Fermi energy                               :         0.18826177
 Kinetic energy                             :        74.58899538
 Coulomb energy                             :      -141.64682790
 Exchange energy                            :       -10.42529091
 Correlation energy                         :        -0.41556904
 
 DOS at Fermi energy (states/Ha/cell)       :         2.50700382
 
 Electron charges :
     core                                   :         4.00000000
     core leakage                           :         0.00127703
     valence                                :         8.00000000
     interstitial                           :         4.67874622
     charge in muffin-tin spheres :
                  atom     1     C          :         3.66062689
                  atom     2     C          :         3.66062689
     total charge in muffin-tins            :         7.32125378
     total charge                           :        12.00000000
 
 Wall time (seconds)                        :       176.50
 
++++++++++++++++++++++++++++++++++++++++++++++++++++++++++++++++++++++++++++++++
| SCF iteration number :    2                                                  +
++++++++++++++++++++++++++++++++++++++++++++++++++++++++++++++++++++++++++++++++
 Total energy                               :       -77.26435353
 _______________________________________________________________
 Fermi energy                               :         0.20529104
 Kinetic energy                             :        75.00263970
 Coulomb energy                             :      -141.45834362
 Exchange energy                            :       -10.39204485
 Correlation energy                         :        -0.41660477
 
 DOS at Fermi energy (states/Ha/cell)       :         2.62612140
 
 Electron charges :
     core                                   :         4.00000000
     core leakage                           :         0.00128713
     valence                                :         8.00000000
     interstitial                           :         4.73410706
     charge in muffin-tin spheres :
                  atom     1     C          :         3.63294647
                  atom     2     C          :         3.63294647
     total charge in muffin-tins            :         7.26589294
     total charge                           :        12.00000000
 
 Wall time (seconds)                        :       353.12
 
 RMS change in effective potential (target) :   1.57073      ( 0.100000E-05)
 Absolute change in total energy   (target) :  0.634339      ( 0.100000E-06)
 Charge distance                   (target) :  0.117624E-01  ( 0.100000E-04)
 Abs. change in max-nonIBS-force   (target) :  0.159075      ( 0.250000E-05)
 
++++++++++++++++++++++++++++++++++++++++++++++++++++++++++++++++++++++++++++++++
| SCF iteration number :    3                                                  +
++++++++++++++++++++++++++++++++++++++++++++++++++++++++++++++++++++++++++++++++
 Total energy                               :       -76.81847252
 _______________________________________________________________
 Fermi energy                               :         0.21687723
 Kinetic energy                             :        75.29133006
 Coulomb energy                             :      -141.32413758
 Exchange energy                            :       -10.36826792
 Correlation energy                         :        -0.41739708
 
 DOS at Fermi energy (states/Ha/cell)       :         2.72812358
 
 Electron charges :
     core                                   :         4.00000000
     core leakage                           :         0.00129351
     valence                                :         8.00000000
     interstitial                           :         4.77412939
     charge in muffin-tin spheres :
                  atom     1     C          :         3.61293530
                  atom     2     C          :         3.61293530
     total charge in muffin-tins            :         7.22587061
     total charge                           :        12.00000000
 
 Wall time (seconds)                        :       529.35
 
 RMS change in effective potential (target) :   1.15759      ( 0.100000E-05)
 Absolute change in total energy   (target) :  0.445881      ( 0.100000E-06)
 Charge distance                   (target) :  0.858154E-02  ( 0.100000E-04)
 Abs. change in max-nonIBS-force   (target) :  0.628114E-01  ( 0.250000E-05)
 
++++++++++++++++++++++++++++++++++++++++++++++++++++++++++++++++++++++++++++++++
| SCF iteration number :    4                                                  +
++++++++++++++++++++++++++++++++++++++++++++++++++++++++++++++++++++++++++++++++
 Total energy                               :       -76.62770426
 _______________________________________________________________
 Fermi energy                               :         0.22143199
 Kinetic energy                             :        75.42947192
 Coulomb energy                             :      -141.28380797
 Exchange energy                            :       -10.35548435
 Correlation energy                         :        -0.41788386
 
 DOS at Fermi energy (states/Ha/cell)       :         2.81101044
 
 Electron charges :
     core                                   :         4.00000000
     core leakage                           :         0.00128586
     valence                                :         8.00000000
     interstitial                           :         4.79949636
     charge in muffin-tin spheres :
                  atom     1     C          :         3.60025182
                  atom     2     C          :         3.60025182
     total charge in muffin-tins            :         7.20050364
     total charge                           :        12.00000000
 
 Wall time (seconds)                        :       706.11
 
 RMS change in effective potential (target) :  0.566447E-01  ( 0.100000E-05)
 Absolute change in total energy   (target) :  0.190768      ( 0.100000E-06)
 Charge distance                   (target) :  0.597960E-02  ( 0.100000E-04)
 Abs. change in max-nonIBS-force   (target) :  0.746859E-01  ( 0.250000E-05)
 
++++++++++++++++++++++++++++++++++++++++++++++++++++++++++++++++++++++++++++++++
| SCF iteration number :    5                                                  +
++++++++++++++++++++++++++++++++++++++++++++++++++++++++++++++++++++++++++++++++
 Total energy                               :       -75.94884042
 _______________________________________________________________
 Fermi energy                               :         0.23826610
 Kinetic energy                             :        75.84687571
 Coulomb energy                             :      -141.05620461
 Exchange energy                            :       -10.32038413
 Correlation energy                         :        -0.41912738
 
 DOS at Fermi energy (states/Ha/cell)       :         3.04295232
 
 Electron charges :
     core                                   :         4.00000000
     core leakage                           :         0.00130320
     valence                                :         8.00000000
     interstitial                           :         4.85633038
     charge in muffin-tin spheres :
                  atom     1     C          :         3.57183481
                  atom     2     C          :         3.57183481
     total charge in muffin-tins            :         7.14366962
     total charge                           :        12.00000000
 
 Wall time (seconds)                        :       882.99
 
 RMS change in effective potential (target) :  0.307284E-01  ( 0.100000E-05)
 Absolute change in total energy   (target) :  0.678864      ( 0.100000E-06)
 Charge distance                   (target) :  0.120398E-01  ( 0.100000E-04)
 Abs. change in max-nonIBS-force   (target) :  0.155283E-01  ( 0.250000E-05)
 
++++++++++++++++++++++++++++++++++++++++++++++++++++++++++++++++++++++++++++++++
| SCF iteration number :    6                                                  +
++++++++++++++++++++++++++++++++++++++++++++++++++++++++++++++++++++++++++++++++
 Total energy                               :       -76.17841000
 _______________________________________________________________
 Fermi energy                               :         0.23273296
 Kinetic energy                             :        75.70668459
 Coulomb energy                             :      -141.13400322
 Exchange energy                            :       -10.33239683
 Correlation energy                         :        -0.41869454
 
 DOS at Fermi energy (states/Ha/cell)       :         2.94258193
 
 Electron charges :
     core                                   :         4.00000000
     core leakage                           :         0.00129742
     valence                                :         8.00000000
     interstitial                           :         4.83685384
     charge in muffin-tin spheres :
                  atom     1     C          :         3.58157308
                  atom     2     C          :         3.58157308
     total charge in muffin-tins            :         7.16314616
     total charge                           :        12.00000000
 
 Wall time (seconds)                        :      1059.32
 
 RMS change in effective potential (target) :  0.563461E-03  ( 0.100000E-05)
 Absolute change in total energy   (target) :  0.229570      ( 0.100000E-06)
 Charge distance                   (target) :  0.415164E-02  ( 0.100000E-04)
 Abs. change in max-nonIBS-force   (target) :  0.222363E-01  ( 0.250000E-05)
 
++++++++++++++++++++++++++++++++++++++++++++++++++++++++++++++++++++++++++++++++
| SCF iteration number :    7                                                  +
++++++++++++++++++++++++++++++++++++++++++++++++++++++++++++++++++++++++++++++++
 Total energy                               :       -76.18124047
 _______________________________________________________________
 Fermi energy                               :         0.23265661
 Kinetic energy                             :        75.70503317
 Coulomb energy                             :      -141.13505300
 Exchange energy                            :       -10.33253139
 Correlation energy                         :        -0.41868924
 
 DOS at Fermi energy (states/Ha/cell)       :         2.94217252
 
 Electron charges :
     core                                   :         4.00000000
     core leakage                           :         0.00129730
     valence                                :         8.00000000
     interstitial                           :         4.83664304
     charge in muffin-tin spheres :
                  atom     1     C          :         3.58167848
                  atom     2     C          :         3.58167848
     total charge in muffin-tins            :         7.16335696
     total charge                           :        12.00000000
 
 Wall time (seconds)                        :      1235.95
 
 RMS change in effective potential (target) :  0.107100E-03  ( 0.100000E-05)
 Absolute change in total energy   (target) :  0.283047E-02  ( 0.100000E-06)
 Charge distance                   (target) :  0.455194E-04  ( 0.100000E-04)
 Abs. change in max-nonIBS-force   (target) :  0.326541E-03  ( 0.250000E-05)
 
++++++++++++++++++++++++++++++++++++++++++++++++++++++++++++++++++++++++++++++++
| SCF iteration number :    8                                                  +
++++++++++++++++++++++++++++++++++++++++++++++++++++++++++++++++++++++++++++++++
 Total energy                               :       -76.18143481
 _______________________________________________________________
 Fermi energy                               :         0.23265173
 Kinetic energy                             :        75.70487428
 Coulomb energy                             :      -141.13507936
 Exchange energy                            :       -10.33254075
 Correlation energy                         :        -0.41868898
 
 DOS at Fermi energy (states/Ha/cell)       :         2.94194355
 
 Electron charges :
     core                                   :         4.00000000
     core leakage                           :         0.00129730
     valence                                :         8.00000000
     interstitial                           :         4.83662543
     charge in muffin-tin spheres :
                  atom     1     C          :         3.58168729
                  atom     2     C          :         3.58168729
     total charge in muffin-tins            :         7.16337457
     total charge                           :        12.00000000
 
 Wall time (seconds)                        :      1412.10
 
 RMS change in effective potential (target) :  0.896053E-05  ( 0.100000E-05)
 Absolute change in total energy   (target) :  0.194346E-03  ( 0.100000E-06)
 Charge distance                   (target) :  0.808226E-05  ( 0.100000E-04)
 Abs. change in max-nonIBS-force   (target) :  0.663712E-04  ( 0.250000E-05)
 
++++++++++++++++++++++++++++++++++++++++++++++++++++++++++++++++++++++++++++++++
| SCF iteration number :    9                                                  +
++++++++++++++++++++++++++++++++++++++++++++++++++++++++++++++++++++++++++++++++
 Total energy                               :       -76.18132475
 _______________________________________________________________
 Fermi energy                               :         0.23265434
 Kinetic energy                             :        75.70494413
 Coulomb energy                             :      -141.13504447
 Exchange energy                            :       -10.33253525
 Correlation energy                         :        -0.41868917
 
 DOS at Fermi energy (states/Ha/cell)       :         2.94201460
 
 Electron charges :
     core                                   :         4.00000000
     core leakage                           :         0.00129730
     valence                                :         8.00000000
     interstitial                           :         4.83663443
     charge in muffin-tin spheres :
                  atom     1     C          :         3.58168278
                  atom     2     C          :         3.58168278
     total charge in muffin-tins            :         7.16336557
     total charge                           :        12.00000000
 
 Wall time (seconds)                        :      1588.27
 
 RMS change in effective potential (target) :  0.227026E-05  ( 0.100000E-05)
 Absolute change in total energy   (target) :  0.110060E-03  ( 0.100000E-06)
 Charge distance                   (target) :  0.251889E-05  ( 0.100000E-04)
 Abs. change in max-nonIBS-force   (target) :  0.150631E-04  ( 0.250000E-05)
 
++++++++++++++++++++++++++++++++++++++++++++++++++++++++++++++++++++++++++++++++
| SCF iteration number :   10                                                  +
++++++++++++++++++++++++++++++++++++++++++++++++++++++++++++++++++++++++++++++++
 Total energy                               :       -76.18131808
 _______________________________________________________________
 Fermi energy                               :         0.23265452
 Kinetic energy                             :        75.70494902
 Coulomb energy                             :      -141.13504303
 Exchange energy                            :       -10.33253489
 Correlation energy                         :        -0.41868918
 
 DOS at Fermi energy (states/Ha/cell)       :         2.94201344
 
 Electron charges :
     core                                   :         4.00000000
     core leakage                           :         0.00129730
     valence                                :         8.00000000
     interstitial                           :         4.83663508
     charge in muffin-tin spheres :
                  atom     1     C          :         3.58168246
                  atom     2     C          :         3.58168246
     total charge in muffin-tins            :         7.16336492
     total charge                           :        12.00000000
 
 Wall time (seconds)                        :      1764.30
 
 RMS change in effective potential (target) :  0.511364E-07  ( 0.100000E-05)
 Absolute change in total energy   (target) :  0.667419E-05  ( 0.100000E-06)
 Charge distance                   (target) :  0.363373E-06  ( 0.100000E-04)
 Abs. change in max-nonIBS-force   (target) :  0.502861E-05  ( 0.250000E-05)
 
++++++++++++++++++++++++++++++++++++++++++++++++++++++++++++++++++++++++++++++++
| SCF iteration number :   11                                                  +
++++++++++++++++++++++++++++++++++++++++++++++++++++++++++++++++++++++++++++++++
 Total energy                               :       -76.18131852
 _______________________________________________________________
 Fermi energy                               :         0.23265452
 Kinetic energy                             :        75.70494874
 Coulomb energy                             :      -141.13504317
 Exchange energy                            :       -10.33253491
 Correlation energy                         :        -0.41868918
 
 DOS at Fermi energy (states/Ha/cell)       :         2.94201340
 
 Electron charges :
     core                                   :         4.00000000
     core leakage                           :         0.00129730
     valence                                :         8.00000000
     interstitial                           :         4.83663504
     charge in muffin-tin spheres :
                  atom     1     C          :         3.58168248
                  atom     2     C          :         3.58168248
     total charge in muffin-tins            :         7.16336496
     total charge                           :        12.00000000
 
 Wall time (seconds)                        :      1939.82
 
 RMS change in effective potential (target) :  0.223608E-07  ( 0.100000E-05)
 Absolute change in total energy   (target) :  0.443797E-06  ( 0.100000E-06)
 Charge distance                   (target) :  0.198794E-07  ( 0.100000E-04)
 Abs. change in max-nonIBS-force   (target) :  0.255244E-06  ( 0.250000E-05)
 
++++++++++++++++++++++++++++++++++++++++++++++++++++++++++++++++++++++++++++++++
| SCF iteration number :   12                                                  +
++++++++++++++++++++++++++++++++++++++++++++++++++++++++++++++++++++++++++++++++
 Total energy                               :       -76.18131852
 _______________________________________________________________
 Fermi energy                               :         0.23265452
 Kinetic energy                             :        75.70494874
 Coulomb energy                             :      -141.13504317
 Exchange energy                            :       -10.33253491
 Correlation energy                         :        -0.41868918
 
 DOS at Fermi energy (states/Ha/cell)       :         2.94201341
 
 Electron charges :
     core                                   :         4.00000000
     core leakage                           :         0.00129730
     valence                                :         8.00000000
     interstitial                           :         4.83663504
     charge in muffin-tin spheres :
                  atom     1     C          :         3.58168248
                  atom     2     C          :         3.58168248
     total charge in muffin-tins            :         7.16336496
     total charge                           :        12.00000000
 
 Wall time (seconds)                        :      2115.15
 
 RMS change in effective potential (target) :  0.808829E-08  ( 0.100000E-05)
 Absolute change in total energy   (target) :  0.280139E-09  ( 0.100000E-06)
 Charge distance                   (target) :  0.975950E-09  ( 0.100000E-04)
 Abs. change in max-nonIBS-force   (target) :  0.730567E-08  ( 0.250000E-05)
 
++++++++++++++++++++++++++++++++++++++++++++++++++++++++++++++++++++++++++++++++
| Convergence targets achieved. Performing final SCF iteration                 +
++++++++++++++++++++++++++++++++++++++++++++++++++++++++++++++++++++++++++++++++
 Total energy                               :       -76.19112757
 _______________________________________________________________
 Fermi energy                               :         0.23265452
 Kinetic energy                             :        75.70494873
 Coulomb energy                             :      -141.13504318
 Exchange energy                            :       -10.33253491
 Correlation energy                         :        -0.41868918
 DFT-D2 dispersion correction               :        -0.00980904
 
 DOS at Fermi energy (states/Ha/cell)       :         2.94201342
 
 Electron charges :
     core                                   :         4.00000000
     core leakage                           :         0.00129730
     valence                                :         8.00000000
     interstitial                           :         4.83663504
     charge in muffin-tin spheres :
                  atom     1     C          :         3.58168248
                  atom     2     C          :         3.58168248
     total charge in muffin-tins            :         7.16336496
     total charge                           :        12.00000000
 
++++++++++++++++++++++++++++++++++++++++++++++++++++++++++++++++++++++++++++++++
| Self-consistent loop stopped                                                 +
++++++++++++++++++++++++++++++++++++++++++++++++++++++++++++++++++++++++++++++++
 STATE.OUT is written
 
--------------------------------------------------------------------------------
| Writing atomic positions and forces                                          -
--------------------------------------------------------------------------------
 
 Atomic positions (lattice) :
 atom     1   C  :     0.00000000    0.00000000    0.00000000
 atom     2   C  :     0.33333333    0.33333333    0.00000000
 
 Total atomic forces including IBS (cartesian) :
 atom     1   C  :    -0.00990940    0.01039310    0.00000000
 atom     2   C  :     0.00990940   -0.01039310    0.00000000
 
 Atomic force components including IBS (cartesian) :
 atom     1   C  :     0.03238385    0.01030446    0.00000000   HF force
                 :    -0.04242290    0.00029556    0.00000000   core correction
                 :    -0.00055162   -0.00026801    0.00000000   IBS correction
                 :     0.00068128    0.00006108    0.00000000   DFT-D2 force
 atom     2   C  :    -0.03238385   -0.01030446    0.00000000   HF force
                 :     0.04242290   -0.00029556    0.00000000   core correction
                 :     0.00055162    0.00026801    0.00000000   IBS correction
                 :    -0.00068128   -0.00006108    0.00000000   DFT-D2 force
 
********************************************************************************
| Groundstate module stopped                                                   *
********************************************************************************
 
********************************************************************************
| Structure-optimization module started                                        *
********************************************************************************
 Output level for this task is set to normal
 
 Maximum displacement tau_BFGS   is         :         0.3000
 Maximum displacement tau_newton is         :         0.8000
 
++++++++++++++++++++++++++++++++++++++++++++++++++++++++++++++++++++++++++++++++
| Use harmonic method for optimizing atomic positions                          +
++++++++++++++++++++++++++++++++++++++++++++++++++++++++++++++++++++++++++++++++
 
--------------------------------------------------------------------------------
| Optimization step 0: Initialize optimization                                 -
--------------------------------------------------------------------------------
 Maximum force magnitude           (target) :         0.01436011  (  0.00001000)
 Total energy at this optimization step     :       -76.19112757
 
 Atomic positions at this step (lattice) :
 atom     1   C  :     0.00000000    0.00000000    0.00000000
 atom     2   C  :     0.33333333    0.33333333    0.00000000
 
 Total atomic forces including IBS (cartesian) :
 atom     1   C  :    -0.00990940    0.01039310    0.00000000
 atom     2   C  :     0.00990940   -0.01039310    0.00000000
 
--------------------------------------------------------------------------------
| Optimization step    1    (method = harmonic)                                -
--------------------------------------------------------------------------------
 Number of scf iterations                   :        13  (full newton step)
 Maximum force magnitude           (target) :         0.00267879  (  0.00001000)
 Total energy at this optimization step     :       -76.19132160
 
 Atomic positions at this step (lattice) :
 atom     1   C  :     0.00000000    0.00000000    0.00000000
 atom     2   C  :     0.33475335    0.32762574    0.00000000
 
 Total atomic forces including IBS (cartesian) :
 atom     1   C  :    -0.00131115    0.00233598    0.00000000
 atom     2   C  :     0.00131115   -0.00233598    0.00000000
 
 Time spent in this optimization step       :      2423.59 seconds
 
--------------------------------------------------------------------------------
| Optimization step    2    (method = harmonic)                                -
--------------------------------------------------------------------------------
 Number of scf iterations                   :        12  (full harmonic step)
 Maximum force magnitude           (target) :         0.00023935  (  0.00001000)
 Total energy at this optimization step     :       -76.19132911
 
 Atomic positions at this step (lattice) :
 atom     1   C  :     0.00000000    0.00000000    0.00000000
 atom     2   C  :     0.33473028    0.32644480    0.00000000
 
 Total atomic forces including IBS (cartesian) :
 atom     1   C  :     0.00015375    0.00018343    0.00000000
 atom     2   C  :    -0.00015375   -0.00018343    0.00000000
 
 Time spent in this optimization step       :      2218.91 seconds
 
--------------------------------------------------------------------------------
| Optimization step    3    (method = harmonic)                                -
--------------------------------------------------------------------------------
 Number of scf iterations                   :        11  (full harmonic step)
 Maximum force magnitude           (target) :         0.00008317  (  0.00001000)
 Total energy at this optimization step     :       -76.19132926
 
 Atomic positions at this step (lattice) :
 atom     1   C  :     0.00000000    0.00000000    0.00000000
 atom     2   C  :     0.33463658    0.32644415    0.00000000
 
 Total atomic forces including IBS (cartesian) :
 atom     1   C  :     0.00007459    0.00003679    0.00000000
 atom     2   C  :    -0.00007459   -0.00003679    0.00000000
 
 Time spent in this optimization step       :      2044.93 seconds
 
--------------------------------------------------------------------------------
| Optimization step    4    (method = harmonic)                                -
--------------------------------------------------------------------------------
 Number of scf iterations                   :        11  (partial harmonic step)
 Maximum force magnitude           (target) :         0.00002671  (  0.00001000)
 Total energy at this optimization step     :       -76.19132931
 
 Atomic positions at this step (lattice) :
 atom     1   C  :     0.00000000    0.00000000    0.00000000
 atom     2   C  :     0.33457815    0.32648205    0.00000000
 
 Total atomic forces including IBS (cartesian) :
 atom     1   C  :    -0.00002268    0.00001410    0.00000000
 atom     2   C  :     0.00002268   -0.00001410    0.00000000
 
 Time spent in this optimization step       :      2045.65 seconds
 
--------------------------------------------------------------------------------
| Optimization step    5    (method = harmonic)                                -
--------------------------------------------------------------------------------
 Number of scf iterations                   :        11  (partial harmonic step)
 Maximum force magnitude           (target) :         0.00001037  (  0.00001000)
 Total energy at this optimization step     :       -76.19132930
 
 Atomic positions at this step (lattice) :
 atom     1   C  :     0.00000000    0.00000000    0.00000000
 atom     2   C  :     0.33458452    0.32646381    0.00000000
 
 Total atomic forces including IBS (cartesian) :
 atom     1   C  :     0.00000557   -0.00000874    0.00000000
 atom     2   C  :    -0.00000557    0.00000874    0.00000000
 
 Time spent in this optimization step       :      2047.97 seconds
 
--------------------------------------------------------------------------------
| Optimization step    6    (method = harmonic)                                -
--------------------------------------------------------------------------------
 Number of scf iterations                   :        10  (full harmonic step)
 Maximum force magnitude           (target) :         0.00000107  (  0.00001000)
 Total energy at this optimization step     :       -76.19132932
 
 Atomic positions at this step (lattice) :
 atom     1   C  :     0.00000000    0.00000000    0.00000000
 atom     2   C  :     0.33458414    0.32646854    0.00000000
 
 Total atomic forces including IBS (cartesian) :
 atom     1   C  :    -0.00000067   -0.00000083    0.00000000
 atom     2   C  :     0.00000067    0.00000083    0.00000000
 
 Time spent in this optimization step       :      1868.11 seconds
 
++++++++++++++++++++++++++++++++++++++++++++++++++++++++++++++++++++++++++++++++
| Force convergence target achieved                                            +
++++++++++++++++++++++++++++++++++++++++++++++++++++++++++++++++++++++++++++++++
 Total energy                               :       -76.19132932
 _______________________________________________________________
 Fermi energy                               :         0.23251520
 Kinetic energy                             :        75.69417340
 Coulomb energy                             :      -141.12639721
 Exchange energy                            :       -10.33059832
 Correlation energy                         :        -0.41870907
 DFT-D2 dispersion correction               :        -0.00979813
 
 DOS at Fermi energy (states/Ha/cell)       :         2.86450864
 
 Electron charges :
     core                                   :         4.00000000
     core leakage                           :         0.00129677
     valence                                :         8.00000000
     interstitial                           :         4.84195352
     charge in muffin-tin spheres :
                  atom     1     C          :         3.57902324
                  atom     2     C          :         3.57902324
     total charge in muffin-tins            :         7.15804648
     total charge                           :        12.00000000
 
 Optimized atomic positions (lattice) :
 atom     1   C  :     0.00000000    0.00000000    0.00000000
 atom     2   C  :     0.33458414    0.32646854    0.00000000
 
 Total atomic forces including IBS (cartesian) :
 atom     1   C  :    -0.00000067   -0.00000083    0.00000000
 atom     2   C  :     0.00000067    0.00000083    0.00000000
 
 Atomic force components including IBS (cartesian) :
 atom     1   C  :     0.04237057    0.00012947    0.00000000   HF force
                 :    -0.04237123    0.00000003    0.00000000   core correction
                 :    -0.00067402   -0.00017582    0.00000000   IBS correction
                 :     0.00067401    0.00004548    0.00000000   DFT-D2 force
 atom     2   C  :    -0.04237057   -0.00012947    0.00000000   HF force
                 :     0.04237123   -0.00000003    0.00000000   core correction
                 :     0.00067402    0.00017582    0.00000000   IBS correction
                 :    -0.00067401   -0.00004548    0.00000000   DFT-D2 force
 
********************************************************************************
| Structure-optimization module stopped                                        *
********************************************************************************
 
 Total time spent (seconds)                 :     15092.82
 
================================================================================
| EXCITING BORON stopped                                                       =
================================================================================
