================================================================================
| EXCITING BORON started                                                       =
| version hash id:                                                             =
| MPI version using     16 processor(s)                                        =
|                                                                              =
| Date (DD-MM-YYYY) : 09-08-2015                                               =
| Time (hh:mm:ss)   : 22:23:30                                                 =
|                                                                              =
| All units are atomic (Hartree, Bohr, etc.)                                   =
================================================================================
 
********************************************************************************
| Structural optimisation starting from atomic densities                       *
********************************************************************************
 
++++++++++++++++++++++++++++++++++++++++++++++++++++++++++++++++++++++++++++++++
| Starting initialization                                                      +
++++++++++++++++++++++++++++++++++++++++++++++++++++++++++++++++++++++++++++++++
 
 Lattice vectors (cartesian) :
      2.3270000000      3.6497568878      0.0000000000
     -2.3270000000      3.6497568878      0.0000000000
      0.0000000000      0.0000000000      6.5761020000
 
 Reciprocal lattice vectors (cartesian) :
      1.3500613036      0.8607676484      0.0000000000
     -1.3500613036      0.8607676484      0.0000000000
      0.0000000000      0.0000000000      0.9554573982
 
 Unit cell volume                           :     111.7014617914
 Brillouin zone volume                      :       2.2206532436
 
 Species :    1 (C)
     parameters loaded from                 :    C.xml
     name                                   :    carbon
     nuclear charge                         :      -6.00000000
     electronic charge                      :       6.00000000
     atomic mass                            :   21894.16673000
     muffin-tin radius                      :       1.20000000
     # of radial points in muffin-tin       :     250
 
     atomic positions (lattice) :
       1 :   0.00000000  0.00000000  0.00000000
       2 :   0.33333333  0.33333333  0.00000000
 
 Total number of atoms per unit cell        :       2
 
 Spin treatment                             :    spin-unpolarised
 
 Number of Bravais lattice symmetries       :       8
 Number of crystal symmetries               :       8
 
 k-point grid                               :      34   34   24
 Total number of k-points                   :    3991
 k-point set is reduced with crystal symmetries
 
 R^MT_min * |G+k|_max (rgkmax)              :       8.00000000
 Species with R^MT_min                      :       1 (C)
 Maximum |G+k| for APW functions            :       6.66666667
 Maximum |G| for potential and density      :      20.00000000
 
 G-vector grid sizes                        :      30    30    45
 Total number of G-vectors                  :   15045
 
 Maximum angular momentum used for
     APW functions                          :       8
     computing H and O matrix elements      :       8
     potential and density                  :       8
     inner part of muffin-tin               :       2
 
 Total nuclear charge                       :     -12.00000000
 Total electronic charge                    :      12.00000000
 Total core charge                          :       4.00000000
 Total valence charge                       :       8.00000000
 
 Number of empty states                     :       5
 Total number of valence states             :      10
 
 Maximum Hamiltonian size                   :     582
 Maximum number of plane-waves              :     574
 Total number of local-orbitals             :       8
 
 Exchange-correlation type                  :      20
     Perdew-Burke-Ernzerhof, Phys. Rev. Lett. 77, 3865 (1996)
     Generalised gradient approximation (GGA)
 
 Smearing scheme                            :    Gaussian
 Smearing width                             :       0.01000000
 
 Using multisecant Broyden potential mixing
 
++++++++++++++++++++++++++++++++++++++++++++++++++++++++++++++++++++++++++++++++
| Ending initialization                                                        +
++++++++++++++++++++++++++++++++++++++++++++++++++++++++++++++++++++++++++++++++
 
********************************************************************************
| Groundstate module started                                                   *
********************************************************************************
 Output level for this task is set to normal
 
++++++++++++++++++++++++++++++++++++++++++++++++++++++++++++++++++++++++++++++++
| Self-consistent loop started                                                 +
++++++++++++++++++++++++++++++++++++++++++++++++++++++++++++++++++++++++++++++++
 Density and potential initialised from atomic data
 
 
++++++++++++++++++++++++++++++++++++++++++++++++++++++++++++++++++++++++++++++++
| SCF iteration number :    1                                                  +
++++++++++++++++++++++++++++++++++++++++++++++++++++++++++++++++++++++++++++++++
 Total energy                               :       -79.01116688
 _______________________________________________________________
 Fermi energy                               :         0.18506867
 Kinetic energy                             :        74.57226534
 Coulomb energy                             :      -142.51305818
 Exchange energy                            :       -10.64357366
 Correlation energy                         :        -0.42680038
 
 DOS at Fermi energy (states/Ha/cell)       :         0.71206638
 
 Electron charges :
     core                                   :         4.00000000
     core leakage                           :         0.00129511
     valence                                :         8.00000000
     interstitial                           :         4.24064731
     charge in muffin-tin spheres :
                  atom     1     C          :         3.87967634
                  atom     2     C          :         3.87967634
     total charge in muffin-tins            :         7.75935269
     total charge                           :        12.00000000
 
 Wall time (seconds)                        :        78.67
 
++++++++++++++++++++++++++++++++++++++++++++++++++++++++++++++++++++++++++++++++
| SCF iteration number :    2                                                  +
++++++++++++++++++++++++++++++++++++++++++++++++++++++++++++++++++++++++++++++++
 Total energy                               :       -77.97362689
 _______________________________________________________________
 Fermi energy                               :         0.21434328
 Kinetic energy                             :        75.29174015
 Coulomb energy                             :      -142.24186158
 Exchange energy                            :       -10.59569730
 Correlation energy                         :        -0.42780815
 
 DOS at Fermi energy (states/Ha/cell)       :         0.76151138
 
 Electron charges :
     core                                   :         4.00000000
     core leakage                           :         0.00131219
     valence                                :         8.00000000
     interstitial                           :         4.32142777
     charge in muffin-tin spheres :
                  atom     1     C          :         3.83928612
                  atom     2     C          :         3.83928612
     total charge in muffin-tins            :         7.67857223
     total charge                           :        12.00000000
 
 Wall time (seconds)                        :       154.92
 
 RMS change in effective potential (target) :   1.63437      ( 0.100000E-05)
 Absolute change in total energy   (target) :   1.03754      ( 0.100000E-06)
 Charge distance                   (target) :  0.158146E-01  ( 0.100000E-04)
 Abs. change in max-nonIBS-force   (target) :  0.860858E-01  ( 0.250000E-05)
 
++++++++++++++++++++++++++++++++++++++++++++++++++++++++++++++++++++++++++++++++
| SCF iteration number :    3                                                  +
++++++++++++++++++++++++++++++++++++++++++++++++++++++++++++++++++++++++++++++++
 Total energy                               :       -77.23630122
 _______________________________________________________________
 Fermi energy                               :         0.23416224
 Kinetic energy                             :        75.79687297
 Coulomb energy                             :      -142.04379500
 Exchange energy                            :       -10.56076036
 Correlation energy                         :        -0.42861883
 
 DOS at Fermi energy (states/Ha/cell)       :         0.80330024
 
 Electron charges :
     core                                   :         4.00000000
     core leakage                           :         0.00132348
     valence                                :         8.00000000
     interstitial                           :         4.38076336
     charge in muffin-tin spheres :
                  atom     1     C          :         3.80961832
                  atom     2     C          :         3.80961832
     total charge in muffin-tins            :         7.61923664
     total charge                           :        12.00000000
 
 Wall time (seconds)                        :       231.89
 
 RMS change in effective potential (target) :   1.20982      ( 0.100000E-05)
 Absolute change in total energy   (target) :  0.737326      ( 0.100000E-06)
 Charge distance                   (target) :  0.117370E-01  ( 0.100000E-04)
 Abs. change in max-nonIBS-force   (target) :  0.539675E-01  ( 0.250000E-05)
 
++++++++++++++++++++++++++++++++++++++++++++++++++++++++++++++++++++++++++++++++
| SCF iteration number :    4                                                  +
++++++++++++++++++++++++++++++++++++++++++++++++++++++++++++++++++++++++++++++++
 Total energy                               :       -76.90443456
 _______________________________________________________________
 Fermi energy                               :         0.24165055
 Kinetic energy                             :        76.03844019
 Coulomb energy                             :      -141.97217559
 Exchange energy                            :       -10.54153900
 Correlation energy                         :        -0.42916016
 
 DOS at Fermi energy (states/Ha/cell)       :         0.83370046
 
 Electron charges :
     core                                   :         4.00000000
     core leakage                           :         0.00131654
     valence                                :         8.00000000
     interstitial                           :         4.41902913
     charge in muffin-tin spheres :
                  atom     1     C          :         3.79048544
                  atom     2     C          :         3.79048544
     total charge in muffin-tins            :         7.58097087
     total charge                           :        12.00000000
 
 Wall time (seconds)                        :       308.37
 
 RMS change in effective potential (target) :  0.857227E-01  ( 0.100000E-05)
 Absolute change in total energy   (target) :  0.331867      ( 0.100000E-06)
 Charge distance                   (target) :  0.801483E-02  ( 0.100000E-04)
 Abs. change in max-nonIBS-force   (target) :  0.211942E-02  ( 0.250000E-05)
 
++++++++++++++++++++++++++++++++++++++++++++++++++++++++++++++++++++++++++++++++
| SCF iteration number :    5                                                  +
++++++++++++++++++++++++++++++++++++++++++++++++++++++++++++++++++++++++++++++++
 Total energy                               :       -75.87867842
 _______________________________________________________________
 Fermi energy                               :         0.26788425
 Kinetic energy                             :        76.71307959
 Coulomb energy                             :      -141.66778988
 Exchange energy                            :       -10.49358395
 Correlation energy                         :        -0.43038419
 
 DOS at Fermi energy (states/Ha/cell)       :         0.91585598
 
 Electron charges :
     core                                   :         4.00000000
     core leakage                           :         0.00134021
     valence                                :         8.00000000
     interstitial                           :         4.49739422
     charge in muffin-tin spheres :
                  atom     1     C          :         3.75130289
                  atom     2     C          :         3.75130289
     total charge in muffin-tins            :         7.50260578
     total charge                           :        12.00000000
 
 Wall time (seconds)                        :       385.23
 
 RMS change in effective potential (target) :  0.347153E-01  ( 0.100000E-05)
 Absolute change in total energy   (target) :   1.02576      ( 0.100000E-06)
 Charge distance                   (target) :  0.154776E-01  ( 0.100000E-04)
 Abs. change in max-nonIBS-force   (target) :  0.460945E-01  ( 0.250000E-05)
 
++++++++++++++++++++++++++++++++++++++++++++++++++++++++++++++++++++++++++++++++
| SCF iteration number :    6                                                  +
++++++++++++++++++++++++++++++++++++++++++++++++++++++++++++++++++++++++++++++++
 Total energy                               :       -76.18325101
 _______________________________________________________________
 Fermi energy                               :         0.26027185
 Kinetic energy                             :        76.51276475
 Coulomb energy                             :      -141.75804396
 Exchange energy                            :       -10.50795894
 Correlation energy                         :        -0.43001286
 
 DOS at Fermi energy (states/Ha/cell)       :         0.88846097
 
 Electron charges :
     core                                   :         4.00000000
     core leakage                           :         0.00133361
     valence                                :         8.00000000
     interstitial                           :         4.47375455
     charge in muffin-tin spheres :
                  atom     1     C          :         3.76312273
                  atom     2     C          :         3.76312273
     total charge in muffin-tins            :         7.52624545
     total charge                           :        12.00000000
 
 Wall time (seconds)                        :       462.59
 
 RMS change in effective potential (target) :  0.932111E-03  ( 0.100000E-05)
 Absolute change in total energy   (target) :  0.304573      ( 0.100000E-06)
 Charge distance                   (target) :  0.471727E-02  ( 0.100000E-04)
 Abs. change in max-nonIBS-force   (target) :  0.166768E-01  ( 0.250000E-05)
 
++++++++++++++++++++++++++++++++++++++++++++++++++++++++++++++++++++++++++++++++
| SCF iteration number :    7                                                  +
++++++++++++++++++++++++++++++++++++++++++++++++++++++++++++++++++++++++++++++++
 Total energy                               :       -76.18107328
 _______________________________________________________________
 Fermi energy                               :         0.26032535
 Kinetic energy                             :        76.51477564
 Coulomb energy                             :      -141.75797040
 Exchange energy                            :       -10.50786605
 Correlation energy                         :        -0.43001246
 
 DOS at Fermi energy (states/Ha/cell)       :         0.88884975
 
 Electron charges :
     core                                   :         4.00000000
     core leakage                           :         0.00133351
     valence                                :         8.00000000
     interstitial                           :         4.47393491
     charge in muffin-tin spheres :
                  atom     1     C          :         3.76303255
                  atom     2     C          :         3.76303255
     total charge in muffin-tins            :         7.52606509
     total charge                           :        12.00000000
 
 Wall time (seconds)                        :       539.32
 
 RMS change in effective potential (target) :  0.214569E-03  ( 0.100000E-05)
 Absolute change in total energy   (target) :  0.217773E-02  ( 0.100000E-06)
 Charge distance                   (target) :  0.699392E-04  ( 0.100000E-04)
 Abs. change in max-nonIBS-force   (target) :  0.343348E-03  ( 0.250000E-05)
 
++++++++++++++++++++++++++++++++++++++++++++++++++++++++++++++++++++++++++++++++
| SCF iteration number :    8                                                  +
++++++++++++++++++++++++++++++++++++++++++++++++++++++++++++++++++++++++++++++++
 Total energy                               :       -76.18251088
 _______________________________________________________________
 Fermi energy                               :         0.26028787
 Kinetic energy                             :        76.51369519
 Coulomb energy                             :      -141.75826771
 Exchange energy                            :       -10.50792697
 Correlation energy                         :        -0.43001140
 
 DOS at Fermi energy (states/Ha/cell)       :         0.88869572
 
 Electron charges :
     core                                   :         4.00000000
     core leakage                           :         0.00133350
     valence                                :         8.00000000
     interstitial                           :         4.47383043
     charge in muffin-tin spheres :
                  atom     1     C          :         3.76308478
                  atom     2     C          :         3.76308478
     total charge in muffin-tins            :         7.52616957
     total charge                           :        12.00000000
 
 Wall time (seconds)                        :       616.01
 
 RMS change in effective potential (target) :  0.337258E-04  ( 0.100000E-05)
 Absolute change in total energy   (target) :  0.143760E-02  ( 0.100000E-06)
 Charge distance                   (target) :  0.260278E-04  ( 0.100000E-04)
 Abs. change in max-nonIBS-force   (target) :  0.131453E-03  ( 0.250000E-05)
 
++++++++++++++++++++++++++++++++++++++++++++++++++++++++++++++++++++++++++++++++
| SCF iteration number :    9                                                  +
++++++++++++++++++++++++++++++++++++++++++++++++++++++++++++++++++++++++++++++++
 Total energy                               :       -76.18241098
 _______________________________________________________________
 Fermi energy                               :         0.26029008
 Kinetic energy                             :        76.51375610
 Coulomb energy                             :      -141.75823302
 Exchange energy                            :       -10.50792254
 Correlation energy                         :        -0.43001152
 
 DOS at Fermi energy (states/Ha/cell)       :         0.88870259
 
 Electron charges :
     core                                   :         4.00000000
     core leakage                           :         0.00133351
     valence                                :         8.00000000
     interstitial                           :         4.47383703
     charge in muffin-tin spheres :
                  atom     1     C          :         3.76308148
                  atom     2     C          :         3.76308148
     total charge in muffin-tins            :         7.52616297
     total charge                           :        12.00000000
 
 Wall time (seconds)                        :       692.17
 
 RMS change in effective potential (target) :  0.290335E-05  ( 0.100000E-05)
 Absolute change in total energy   (target) :  0.999007E-04  ( 0.100000E-06)
 Charge distance                   (target) :  0.263536E-05  ( 0.100000E-04)
 Abs. change in max-nonIBS-force   (target) :  0.203493E-04  ( 0.250000E-05)
 
++++++++++++++++++++++++++++++++++++++++++++++++++++++++++++++++++++++++++++++++
| SCF iteration number :   10                                                  +
++++++++++++++++++++++++++++++++++++++++++++++++++++++++++++++++++++++++++++++++
 Total energy                               :       -76.18239774
 _______________________________________________________________
 Fermi energy                               :         0.26029047
 Kinetic energy                             :        76.51376488
 Coulomb energy                             :      -141.75822928
 Exchange energy                            :       -10.50792180
 Correlation energy                         :        -0.43001154
 
 DOS at Fermi energy (states/Ha/cell)       :         0.88870371
 
 Electron charges :
     core                                   :         4.00000000
     core leakage                           :         0.00133351
     valence                                :         8.00000000
     interstitial                           :         4.47383839
     charge in muffin-tin spheres :
                  atom     1     C          :         3.76308080
                  atom     2     C          :         3.76308080
     total charge in muffin-tins            :         7.52616161
     total charge                           :        12.00000000
 
 Wall time (seconds)                        :       768.05
 
 RMS change in effective potential (target) :  0.481389E-06  ( 0.100000E-05)
 Absolute change in total energy   (target) :  0.132405E-04  ( 0.100000E-06)
 Charge distance                   (target) :  0.893493E-06  ( 0.100000E-04)
 Abs. change in max-nonIBS-force   (target) :  0.152103E-04  ( 0.250000E-05)
 
++++++++++++++++++++++++++++++++++++++++++++++++++++++++++++++++++++++++++++++++
| SCF iteration number :   11                                                  +
++++++++++++++++++++++++++++++++++++++++++++++++++++++++++++++++++++++++++++++++
 Total energy                               :       -76.18239789
 _______________________________________________________________
 Fermi energy                               :         0.26029048
 Kinetic energy                             :        76.51376495
 Coulomb energy                             :      -141.75822948
 Exchange energy                            :       -10.50792182
 Correlation energy                         :        -0.43001154
 
 DOS at Fermi energy (states/Ha/cell)       :         0.88870373
 
 Electron charges :
     core                                   :         4.00000000
     core leakage                           :         0.00133351
     valence                                :         8.00000000
     interstitial                           :         4.47383837
     charge in muffin-tin spheres :
                  atom     1     C          :         3.76308081
                  atom     2     C          :         3.76308081
     total charge in muffin-tins            :         7.52616163
     total charge                           :        12.00000000
 
 Wall time (seconds)                        :       843.72
 
 RMS change in effective potential (target) :  0.200049E-07  ( 0.100000E-05)
 Absolute change in total energy   (target) :  0.146426E-06  ( 0.100000E-06)
 Charge distance                   (target) :  0.326153E-07  ( 0.100000E-04)
 Abs. change in max-nonIBS-force   (target) :  0.582283E-06  ( 0.250000E-05)
 
++++++++++++++++++++++++++++++++++++++++++++++++++++++++++++++++++++++++++++++++
| SCF iteration number :   12                                                  +
++++++++++++++++++++++++++++++++++++++++++++++++++++++++++++++++++++++++++++++++
 Total energy                               :       -76.18239790
 _______________________________________________________________
 Fermi energy                               :         0.26029047
 Kinetic energy                             :        76.51376494
 Coulomb energy                             :      -141.75822948
 Exchange energy                            :       -10.50792182
 Correlation energy                         :        -0.43001154
 
 DOS at Fermi energy (states/Ha/cell)       :         0.88870373
 
 Electron charges :
     core                                   :         4.00000000
     core leakage                           :         0.00133351
     valence                                :         8.00000000
     interstitial                           :         4.47383837
     charge in muffin-tin spheres :
                  atom     1     C          :         3.76308081
                  atom     2     C          :         3.76308081
     total charge in muffin-tins            :         7.52616163
     total charge                           :        12.00000000
 
 Wall time (seconds)                        :       919.31
 
 RMS change in effective potential (target) :  0.167562E-07  ( 0.100000E-05)
 Absolute change in total energy   (target) :  0.119991E-07  ( 0.100000E-06)
 Charge distance                   (target) :  0.332727E-09  ( 0.100000E-04)
 Abs. change in max-nonIBS-force   (target) :  0.306691E-08  ( 0.250000E-05)
 
++++++++++++++++++++++++++++++++++++++++++++++++++++++++++++++++++++++++++++++++
| Convergence targets achieved. Performing final SCF iteration                 +
++++++++++++++++++++++++++++++++++++++++++++++++++++++++++++++++++++++++++++++++
 Total energy                               :       -76.19150653
 _______________________________________________________________
 Fermi energy                               :         0.26029047
 Kinetic energy                             :        76.51376493
 Coulomb energy                             :      -141.75822949
 Exchange energy                            :       -10.50792182
 Correlation energy                         :        -0.43001154
 DFT-D2 dispersion correction               :        -0.00910861
 
 DOS at Fermi energy (states/Ha/cell)       :         0.88870373
 
 Electron charges :
     core                                   :         4.00000000
     core leakage                           :         0.00133351
     valence                                :         8.00000000
     interstitial                           :         4.47383837
     charge in muffin-tin spheres :
                  atom     1     C          :         3.76308082
                  atom     2     C          :         3.76308082
     total charge in muffin-tins            :         7.52616163
     total charge                           :        12.00000000
 
++++++++++++++++++++++++++++++++++++++++++++++++++++++++++++++++++++++++++++++++
| Self-consistent loop stopped                                                 +
++++++++++++++++++++++++++++++++++++++++++++++++++++++++++++++++++++++++++++++++
 STATE.OUT is written
 
--------------------------------------------------------------------------------
| Writing atomic positions and forces                                          -
--------------------------------------------------------------------------------
 
 Atomic positions (lattice) :
 atom     1   C  :     0.00000000    0.00000000    0.00000000
 atom     2   C  :     0.33333333    0.33333333    0.00000000
 
 Total atomic forces including IBS (cartesian) :
 atom     1   C  :     0.00000000   -0.05901794    0.00000000
 atom     2   C  :     0.00000000    0.05901794    0.00000000
 
 Atomic force components including IBS (cartesian) :
 atom     1   C  :     0.00000000   -0.04104889    0.00000000   HF force
                 :     0.00000000   -0.01815014    0.00000000   core correction
                 :     0.00000000    0.00017762    0.00000000   IBS correction
                 :     0.00000000    0.00000348    0.00000000   DFT-D2 force
 atom     2   C  :     0.00000000    0.04104889    0.00000000   HF force
                 :     0.00000000    0.01815014    0.00000000   core correction
                 :     0.00000000   -0.00017762    0.00000000   IBS correction
                 :     0.00000000   -0.00000348    0.00000000   DFT-D2 force
 
********************************************************************************
| Groundstate module stopped                                                   *
********************************************************************************
 
********************************************************************************
| Structure-optimization module started                                        *
********************************************************************************
 Output level for this task is set to normal
 
 Maximum displacement tau_BFGS   is         :         0.3000
 Maximum displacement tau_newton is         :         0.8000
 
++++++++++++++++++++++++++++++++++++++++++++++++++++++++++++++++++++++++++++++++
| Use harmonic method for optimizing atomic positions                          +
++++++++++++++++++++++++++++++++++++++++++++++++++++++++++++++++++++++++++++++++
 
--------------------------------------------------------------------------------
| Optimization step 0: Initialize optimization                                 -
--------------------------------------------------------------------------------
 Maximum force magnitude           (target) :         0.05901794  (  0.00001000)
 Total energy at this optimization step     :       -76.19150653
 
 Atomic positions at this step (lattice) :
 atom     1   C  :     0.00000000    0.00000000    0.00000000
 atom     2   C  :     0.33333333    0.33333333    0.00000000
 
 Total atomic forces including IBS (cartesian) :
 atom     1   C  :     0.00000000   -0.05901794    0.00000000
 atom     2   C  :     0.00000000    0.05901794    0.00000000
 
--------------------------------------------------------------------------------
| Optimization step    1    (method = harmonic)                                -
--------------------------------------------------------------------------------
 Number of scf iterations                   :        14  (full newton step)
 Maximum force magnitude           (target) :         0.02234737  (  0.00001000)
 Total energy at this optimization step     :       -76.19310706
 
 Atomic positions at this step (lattice) :
 atom     1   C  :     0.00000000    0.00000000    0.00000000
 atom     2   C  :     0.34626963    0.34626963    0.00000000
 
 Total atomic forces including IBS (cartesian) :
 atom     1   C  :     0.00000000    0.02234737    0.00000000
 atom     2   C  :     0.00000000   -0.02234737    0.00000000
 
 Time spent in this optimization step       :      1140.24 seconds
 
--------------------------------------------------------------------------------
| Optimization step    2    (method = harmonic)                                -
--------------------------------------------------------------------------------
 Number of scf iterations                   :        12  (full harmonic step)
 Maximum force magnitude           (target) :         0.00139360  (  0.00001000)
 Total energy at this optimization step     :       -76.19342142
 
 Atomic positions at this step (lattice) :
 atom     1   C  :     0.00000000    0.00000000    0.00000000
 atom     2   C  :     0.34271661    0.34271661    0.00000000
 
 Total atomic forces including IBS (cartesian) :
 atom     1   C  :     0.00000000    0.00139360    0.00000000
 atom     2   C  :     0.00000000   -0.00139360    0.00000000
 
 Time spent in this optimization step       :       984.97 seconds
 
--------------------------------------------------------------------------------
| Optimization step    3    (method = harmonic)                                -
--------------------------------------------------------------------------------
 Number of scf iterations                   :        12  (full harmonic step)
 Maximum force magnitude           (target) :         0.00003666  (  0.00001000)
 Total energy at this optimization step     :       -76.19342289
 
 Atomic positions at this step (lattice) :
 atom     1   C  :     0.00000000    0.00000000    0.00000000
 atom     2   C  :     0.34248031    0.34248031    0.00000000
 
 Total atomic forces including IBS (cartesian) :
 atom     1   C  :     0.00000000   -0.00003666    0.00000000
 atom     2   C  :     0.00000000    0.00003666    0.00000000
 
 Time spent in this optimization step       :       984.08 seconds
 
--------------------------------------------------------------------------------
| Optimization step    4    (method = harmonic)                                -
--------------------------------------------------------------------------------
 Number of scf iterations                   :        11  (full harmonic step)
 Maximum force magnitude           (target) :         0.00000006  (  0.00001000)
 Total energy at this optimization step     :       -76.19342288
 
 Atomic positions at this step (lattice) :
 atom     1   C  :     0.00000000    0.00000000    0.00000000
 atom     2   C  :     0.34248636    0.34248636    0.00000000
 
 Total atomic forces including IBS (cartesian) :
 atom     1   C  :     0.00000000    0.00000006    0.00000000
 atom     2   C  :     0.00000000   -0.00000006    0.00000000
 
 Time spent in this optimization step       :       906.58 seconds
 
++++++++++++++++++++++++++++++++++++++++++++++++++++++++++++++++++++++++++++++++
| Force convergence target achieved                                            +
++++++++++++++++++++++++++++++++++++++++++++++++++++++++++++++++++++++++++++++++
 Total energy                               :       -76.19342288
 _______________________________________________________________
 Fermi energy                               :         0.26013146
 Kinetic energy                             :        76.48366002
 Coulomb energy                             :      -141.73492533
 Exchange energy                            :       -10.50296172
 Correlation energy                         :        -0.43008505
 DFT-D2 dispersion correction               :        -0.00911080
 
 DOS at Fermi energy (states/Ha/cell)       :         0.87492527
 
 Electron charges :
     core                                   :         4.00000000
     core leakage                           :         0.00133193
     valence                                :         8.00000000
     interstitial                           :         4.48923012
     charge in muffin-tin spheres :
                  atom     1     C          :         3.75538494
                  atom     2     C          :         3.75538494
     total charge in muffin-tins            :         7.51076988
     total charge                           :        12.00000000
 
 Optimized atomic positions (lattice) :
 atom     1   C  :     0.00000000    0.00000000    0.00000000
 atom     2   C  :     0.34248636    0.34248636    0.00000000
 
 Total atomic forces including IBS (cartesian) :
 atom     1   C  :     0.00000000    0.00000006    0.00000000
 atom     2   C  :     0.00000000   -0.00000006    0.00000000
 
 Atomic force components including IBS (cartesian) :
 atom     1   C  :     0.00000000    0.02190183    0.00000000   HF force
                 :     0.00000000   -0.02148076    0.00000000   core correction
                 :     0.00000000   -0.00035286    0.00000000   IBS correction
                 :     0.00000000   -0.00006814    0.00000000   DFT-D2 force
 atom     2   C  :     0.00000000   -0.02190183    0.00000000   HF force
                 :     0.00000000    0.02148076    0.00000000   core correction
                 :     0.00000000    0.00035286    0.00000000   IBS correction
                 :     0.00000000    0.00006814    0.00000000   DFT-D2 force
 
********************************************************************************
| Structure-optimization module stopped                                        *
********************************************************************************
 
 Total time spent (seconds)                 :      5087.57
 
================================================================================
| EXCITING BORON stopped                                                       =
================================================================================
