================================================================================
| EXCITING BORON started                                                       =
| version hash id:                                                             =
| MPI version using     16 processor(s)                                        =
|                                                                              =
| Date (DD-MM-YYYY) : 12-08-2015                                               =
| Time (hh:mm:ss)   : 21:47:03                                                 =
|                                                                              =
| All units are atomic (Hartree, Bohr, etc.)                                   =
================================================================================
 
********************************************************************************
| Structural optimisation starting from atomic densities                       *
********************************************************************************
 
++++++++++++++++++++++++++++++++++++++++++++++++++++++++++++++++++++++++++++++++
| Starting initialization                                                      +
++++++++++++++++++++++++++++++++++++++++++++++++++++++++++++++++++++++++++++++++
 
 Lattice vectors (cartesian) :
      2.0813320735      4.0304822292      0.0000000000
     -2.0813320735      4.0304822292      0.0000000000
      0.0000000000      0.0000000000      6.5761020000
 
 Reciprocal lattice vectors (cartesian) :
      1.5094144244      0.7794582571      0.0000000000
     -1.5094144244      0.7794582571      0.0000000000
      0.0000000000      0.0000000000      0.9554573982
 
 Unit cell volume                           :     110.3308398012
 Brillouin zone volume                      :       2.2482400559
 
 Species :    1 (C)
     parameters loaded from                 :    C.xml
     name                                   :    carbon
     nuclear charge                         :      -6.00000000
     electronic charge                      :       6.00000000
     atomic mass                            :   21894.16673000
     muffin-tin radius                      :       1.20000000
     # of radial points in muffin-tin       :     250
 
     atomic positions (lattice) :
       1 :   0.00000000  0.00000000  0.00000000
       2 :   0.33333333  0.33333333  0.00000000
 
 Total number of atoms per unit cell        :       2
 
 Spin treatment                             :    spin-unpolarised
 
 Number of Bravais lattice symmetries       :       8
 Number of crystal symmetries               :       8
 
 k-point grid                               :      34   34   24
 Total number of k-points                   :    3991
 k-point set is reduced with crystal symmetries
 
 R^MT_min * |G+k|_max (rgkmax)              :       8.00000000
 Species with R^MT_min                      :       1 (C)
 Maximum |G+k| for APW functions            :       6.66666667
 Maximum |G| for potential and density      :      20.00000000
 
 G-vector grid sizes                        :      30    30    45
 Total number of G-vectors                  :   14921
 
 Maximum angular momentum used for
     APW functions                          :       8
     computing H and O matrix elements      :       8
     potential and density                  :       8
     inner part of muffin-tin               :       2
 
 Total nuclear charge                       :     -12.00000000
 Total electronic charge                    :      12.00000000
 Total core charge                          :       4.00000000
 Total valence charge                       :       8.00000000
 
 Number of empty states                     :       5
 Total number of valence states             :      10
 
 Maximum Hamiltonian size                   :     592
 Maximum number of plane-waves              :     584
 Total number of local-orbitals             :       8
 
 Exchange-correlation type                  :      20
     Perdew-Burke-Ernzerhof, Phys. Rev. Lett. 77, 3865 (1996)
     Generalised gradient approximation (GGA)
 
 Smearing scheme                            :    Gaussian
 Smearing width                             :       0.01000000
 
 Using multisecant Broyden potential mixing
 
++++++++++++++++++++++++++++++++++++++++++++++++++++++++++++++++++++++++++++++++
| Ending initialization                                                        +
++++++++++++++++++++++++++++++++++++++++++++++++++++++++++++++++++++++++++++++++
 
********************************************************************************
| Groundstate module started                                                   *
********************************************************************************
 Output level for this task is set to normal
 
++++++++++++++++++++++++++++++++++++++++++++++++++++++++++++++++++++++++++++++++
| Self-consistent loop started                                                 +
++++++++++++++++++++++++++++++++++++++++++++++++++++++++++++++++++++++++++++++++
 Density and potential initialised from atomic data
 
 
++++++++++++++++++++++++++++++++++++++++++++++++++++++++++++++++++++++++++++++++
| SCF iteration number :    1                                                  +
++++++++++++++++++++++++++++++++++++++++++++++++++++++++++++++++++++++++++++++++
 Total energy                               :       -79.09424693
 _______________________________________________________________
 Fermi energy                               :         0.18806540
 Kinetic energy                             :        74.57966913
 Coulomb energy                             :      -142.58479391
 Exchange energy                            :       -10.66127891
 Correlation energy                         :        -0.42784324
 
 DOS at Fermi energy (states/Ha/cell)       :         0.61714676
 
 Electron charges :
     core                                   :         4.00000000
     core leakage                           :         0.00129680
     valence                                :         8.00000000
     interstitial                           :         4.20282369
     charge in muffin-tin spheres :
                  atom     1     C          :         3.89858816
                  atom     2     C          :         3.89858816
     total charge in muffin-tins            :         7.79717631
     total charge                           :        12.00000000
 
 Wall time (seconds)                        :        75.50
 
++++++++++++++++++++++++++++++++++++++++++++++++++++++++++++++++++++++++++++++++
| SCF iteration number :    2                                                  +
++++++++++++++++++++++++++++++++++++++++++++++++++++++++++++++++++++++++++++++++
 Total energy                               :       -78.02423814
 _______________________________________________________________
 Fermi energy                               :         0.21832089
 Kinetic energy                             :        75.32387608
 Coulomb energy                             :      -142.30701872
 Exchange energy                            :       -10.61223871
 Correlation energy                         :        -0.42885679
 
 DOS at Fermi energy (states/Ha/cell)       :         0.66362612
 
 Electron charges :
     core                                   :         4.00000000
     core leakage                           :         0.00131446
     valence                                :         8.00000000
     interstitial                           :         4.28564879
     charge in muffin-tin spheres :
                  atom     1     C          :         3.85717561
                  atom     2     C          :         3.85717561
     total charge in muffin-tins            :         7.71435121
     total charge                           :        12.00000000
 
 Wall time (seconds)                        :       149.36
 
 RMS change in effective potential (target) :   1.63782      ( 0.100000E-05)
 Absolute change in total energy   (target) :   1.07001      ( 0.100000E-06)
 Charge distance                   (target) :  0.161293E-01  ( 0.100000E-04)
 Abs. change in max-nonIBS-force   (target) :  0.103006      ( 0.250000E-05)
 
++++++++++++++++++++++++++++++++++++++++++++++++++++++++++++++++++++++++++++++++
| SCF iteration number :    3                                                  +
++++++++++++++++++++++++++++++++++++++++++++++++++++++++++++++++++++++++++++++++
 Total energy                               :       -77.26331280
 _______________________________________________________________
 Fermi energy                               :         0.23878972
 Kinetic energy                             :        75.84651584
 Coulomb energy                             :      -142.10375286
 Exchange energy                            :       -10.57640098
 Correlation energy                         :        -0.42967479
 
 DOS at Fermi energy (states/Ha/cell)       :         0.71281089
 
 Electron charges :
     core                                   :         4.00000000
     core leakage                           :         0.00132616
     valence                                :         8.00000000
     interstitial                           :         4.34657342
     charge in muffin-tin spheres :
                  atom     1     C          :         3.82671329
                  atom     2     C          :         3.82671329
     total charge in muffin-tins            :         7.65342658
     total charge                           :        12.00000000
 
 Wall time (seconds)                        :       223.18
 
 RMS change in effective potential (target) :   1.21281      ( 0.100000E-05)
 Absolute change in total energy   (target) :  0.760925      ( 0.100000E-06)
 Charge distance                   (target) :  0.119900E-01  ( 0.100000E-04)
 Abs. change in max-nonIBS-force   (target) :  0.571100E-01  ( 0.250000E-05)
 
++++++++++++++++++++++++++++++++++++++++++++++++++++++++++++++++++++++++++++++++
| SCF iteration number :    4                                                  +
++++++++++++++++++++++++++++++++++++++++++++++++++++++++++++++++++++++++++++++++
 Total energy                               :       -76.91777918
 _______________________________________________________________
 Fermi energy                               :         0.24654326
 Kinetic energy                             :        76.09824438
 Coulomb energy                             :      -142.02920295
 Exchange energy                            :       -10.55659875
 Correlation energy                         :        -0.43022186
 
 DOS at Fermi energy (states/Ha/cell)       :         0.74863566
 
 Electron charges :
     core                                   :         4.00000000
     core leakage                           :         0.00131936
     valence                                :         8.00000000
     interstitial                           :         4.38599564
     charge in muffin-tin spheres :
                  atom     1     C          :         3.80700218
                  atom     2     C          :         3.80700218
     total charge in muffin-tins            :         7.61400436
     total charge                           :        12.00000000
 
 Wall time (seconds)                        :       297.17
 
 RMS change in effective potential (target) :  0.879531E-01  ( 0.100000E-05)
 Absolute change in total energy   (target) :  0.345534      ( 0.100000E-06)
 Charge distance                   (target) :  0.819192E-02  ( 0.100000E-04)
 Abs. change in max-nonIBS-force   (target) :  0.265007E-01  ( 0.250000E-05)
 
++++++++++++++++++++++++++++++++++++++++++++++++++++++++++++++++++++++++++++++++
| SCF iteration number :    5                                                  +
++++++++++++++++++++++++++++++++++++++++++++++++++++++++++++++++++++++++++++++++
 Total energy                               :       -75.86970584
 _______________________________________________________________
 Fermi energy                               :         0.27339531
 Kinetic energy                             :        76.78920659
 Coulomb energy                             :      -141.71966229
 Exchange energy                            :       -10.50779826
 Correlation energy                         :        -0.43145188
 
 DOS at Fermi energy (states/Ha/cell)       :         0.83907884
 
 Electron charges :
     core                                   :         4.00000000
     core leakage                           :         0.00134343
     valence                                :         8.00000000
     interstitial                           :         4.46586792
     charge in muffin-tin spheres :
                  atom     1     C          :         3.76706604
                  atom     2     C          :         3.76706604
     total charge in muffin-tins            :         7.53413208
     total charge                           :        12.00000000
 
 Wall time (seconds)                        :       371.05
 
 RMS change in effective potential (target) :  0.347250E-01  ( 0.100000E-05)
 Absolute change in total energy   (target) :   1.04807      ( 0.100000E-06)
 Charge distance                   (target) :  0.157279E-01  ( 0.100000E-04)
 Abs. change in max-nonIBS-force   (target) :  0.510335E-01  ( 0.250000E-05)
 
++++++++++++++++++++++++++++++++++++++++++++++++++++++++++++++++++++++++++++++++
| SCF iteration number :    6                                                  +
++++++++++++++++++++++++++++++++++++++++++++++++++++++++++++++++++++++++++++++++
 Total energy                               :       -76.17723827
 _______________________________________________________________
 Fermi energy                               :         0.26569121
 Kinetic energy                             :        76.58648039
 Coulomb energy                             :      -141.81037509
 Exchange energy                            :       -10.52226079
 Correlation energy                         :        -0.43108278
 
 DOS at Fermi energy (states/Ha/cell)       :         0.81054830
 
 Electron charges :
     core                                   :         4.00000000
     core leakage                           :         0.00133683
     valence                                :         8.00000000
     interstitial                           :         4.44204355
     charge in muffin-tin spheres :
                  atom     1     C          :         3.77897823
                  atom     2     C          :         3.77897823
     total charge in muffin-tins            :         7.55795645
     total charge                           :        12.00000000
 
 Wall time (seconds)                        :       444.85
 
 RMS change in effective potential (target) :  0.970502E-03  ( 0.100000E-05)
 Absolute change in total energy   (target) :  0.307532      ( 0.100000E-06)
 Charge distance                   (target) :  0.474031E-02  ( 0.100000E-04)
 Abs. change in max-nonIBS-force   (target) :  0.183589E-01  ( 0.250000E-05)
 
++++++++++++++++++++++++++++++++++++++++++++++++++++++++++++++++++++++++++++++++
| SCF iteration number :    7                                                  +
++++++++++++++++++++++++++++++++++++++++++++++++++++++++++++++++++++++++++++++++
 Total energy                               :       -76.17452029
 _______________________________________________________________
 Fermi energy                               :         0.26575980
 Kinetic energy                             :        76.58886451
 Coulomb energy                             :      -141.81015890
 Exchange energy                            :       -10.52214302
 Correlation energy                         :        -0.43108287
 
 DOS at Fermi energy (states/Ha/cell)       :         0.81099876
 
 Electron charges :
     core                                   :         4.00000000
     core leakage                           :         0.00133673
     valence                                :         8.00000000
     interstitial                           :         4.44226743
     charge in muffin-tin spheres :
                  atom     1     C          :         3.77886629
                  atom     2     C          :         3.77886629
     total charge in muffin-tins            :         7.55773257
     total charge                           :        12.00000000
 
 Wall time (seconds)                        :       518.77
 
 RMS change in effective potential (target) :  0.208844E-03  ( 0.100000E-05)
 Absolute change in total energy   (target) :  0.271799E-02  ( 0.100000E-06)
 Charge distance                   (target) :  0.693688E-04  ( 0.100000E-04)
 Abs. change in max-nonIBS-force   (target) :  0.229682E-03  ( 0.250000E-05)
 
++++++++++++++++++++++++++++++++++++++++++++++++++++++++++++++++++++++++++++++++
| SCF iteration number :    8                                                  +
++++++++++++++++++++++++++++++++++++++++++++++++++++++++++++++++++++++++++++++++
 Total energy                               :       -76.17606725
 _______________________________________________________________
 Fermi energy                               :         0.26571928
 Kinetic energy                             :        76.58770728
 Coulomb energy                             :      -141.81048407
 Exchange energy                            :       -10.52220876
 Correlation energy                         :        -0.43108170
 
 DOS at Fermi energy (states/Ha/cell)       :         0.81083084
 
 Electron charges :
     core                                   :         4.00000000
     core leakage                           :         0.00133672
     valence                                :         8.00000000
     interstitial                           :         4.44215447
     charge in muffin-tin spheres :
                  atom     1     C          :         3.77892276
                  atom     2     C          :         3.77892276
     total charge in muffin-tins            :         7.55784553
     total charge                           :        12.00000000
 
 Wall time (seconds)                        :       592.43
 
 RMS change in effective potential (target) :  0.302186E-04  ( 0.100000E-05)
 Absolute change in total energy   (target) :  0.154697E-02  ( 0.100000E-06)
 Charge distance                   (target) :  0.262386E-04  ( 0.100000E-04)
 Abs. change in max-nonIBS-force   (target) :  0.864075E-04  ( 0.250000E-05)
 
++++++++++++++++++++++++++++++++++++++++++++++++++++++++++++++++++++++++++++++++
| SCF iteration number :    9                                                  +
++++++++++++++++++++++++++++++++++++++++++++++++++++++++++++++++++++++++++++++++
 Total energy                               :       -76.17596423
 _______________________________________________________________
 Fermi energy                               :         0.26572155
 Kinetic energy                             :        76.58777171
 Coulomb energy                             :      -141.81044986
 Exchange energy                            :       -10.52220425
 Correlation energy                         :        -0.43108183
 
 DOS at Fermi energy (states/Ha/cell)       :         0.81083786
 
 Electron charges :
     core                                   :         4.00000000
     core leakage                           :         0.00133673
     valence                                :         8.00000000
     interstitial                           :         4.44216130
     charge in muffin-tin spheres :
                  atom     1     C          :         3.77891935
                  atom     2     C          :         3.77891935
     total charge in muffin-tins            :         7.55783870
     total charge                           :        12.00000000
 
 Wall time (seconds)                        :       666.41
 
 RMS change in effective potential (target) :  0.279885E-05  ( 0.100000E-05)
 Absolute change in total energy   (target) :  0.103026E-03  ( 0.100000E-06)
 Charge distance                   (target) :  0.255482E-05  ( 0.100000E-04)
 Abs. change in max-nonIBS-force   (target) :  0.208015E-04  ( 0.250000E-05)
 
++++++++++++++++++++++++++++++++++++++++++++++++++++++++++++++++++++++++++++++++
| SCF iteration number :   10                                                  +
++++++++++++++++++++++++++++++++++++++++++++++++++++++++++++++++++++++++++++++++
 Total energy                               :       -76.17595380
 _______________________________________________________________
 Fermi energy                               :         0.26572188
 Kinetic energy                             :        76.58777844
 Coulomb energy                             :      -141.81044677
 Exchange energy                            :       -10.52220363
 Correlation energy                         :        -0.43108184
 
 DOS at Fermi energy (states/Ha/cell)       :         0.81083900
 
 Electron charges :
     core                                   :         4.00000000
     core leakage                           :         0.00133673
     valence                                :         8.00000000
     interstitial                           :         4.44216244
     charge in muffin-tin spheres :
                  atom     1     C          :         3.77891878
                  atom     2     C          :         3.77891878
     total charge in muffin-tins            :         7.55783756
     total charge                           :        12.00000000
 
 Wall time (seconds)                        :       739.99
 
 RMS change in effective potential (target) :  0.495075E-06  ( 0.100000E-05)
 Absolute change in total energy   (target) :  0.104207E-04  ( 0.100000E-06)
 Charge distance                   (target) :  0.879606E-06  ( 0.100000E-04)
 Abs. change in max-nonIBS-force   (target) :  0.149733E-04  ( 0.250000E-05)
 
++++++++++++++++++++++++++++++++++++++++++++++++++++++++++++++++++++++++++++++++
| SCF iteration number :   11                                                  +
++++++++++++++++++++++++++++++++++++++++++++++++++++++++++++++++++++++++++++++++
 Total energy                               :       -76.17595392
 _______________________________________________________________
 Fermi energy                               :         0.26572189
 Kinetic energy                             :        76.58777854
 Coulomb energy                             :      -141.81044697
 Exchange energy                            :       -10.52220365
 Correlation energy                         :        -0.43108184
 
 DOS at Fermi energy (states/Ha/cell)       :         0.81083901
 
 Electron charges :
     core                                   :         4.00000000
     core leakage                           :         0.00133673
     valence                                :         8.00000000
     interstitial                           :         4.44216242
     charge in muffin-tin spheres :
                  atom     1     C          :         3.77891879
                  atom     2     C          :         3.77891879
     total charge in muffin-tins            :         7.55783758
     total charge                           :        12.00000000
 
 Wall time (seconds)                        :       814.00
 
 RMS change in effective potential (target) :  0.188747E-07  ( 0.100000E-05)
 Absolute change in total energy   (target) :  0.116888E-06  ( 0.100000E-06)
 Charge distance                   (target) :  0.327992E-07  ( 0.100000E-04)
 Abs. change in max-nonIBS-force   (target) :  0.568115E-06  ( 0.250000E-05)
 
++++++++++++++++++++++++++++++++++++++++++++++++++++++++++++++++++++++++++++++++
| SCF iteration number :   12                                                  +
++++++++++++++++++++++++++++++++++++++++++++++++++++++++++++++++++++++++++++++++
 Total energy                               :       -76.17595393
 _______________________________________________________________
 Fermi energy                               :         0.26572189
 Kinetic energy                             :        76.58777854
 Coulomb energy                             :      -141.81044697
 Exchange energy                            :       -10.52220365
 Correlation energy                         :        -0.43108184
 
 DOS at Fermi energy (states/Ha/cell)       :         0.81083902
 
 Electron charges :
     core                                   :         4.00000000
     core leakage                           :         0.00133673
     valence                                :         8.00000000
     interstitial                           :         4.44216242
     charge in muffin-tin spheres :
                  atom     1     C          :         3.77891879
                  atom     2     C          :         3.77891879
     total charge in muffin-tins            :         7.55783758
     total charge                           :        12.00000000
 
 Wall time (seconds)                        :       887.99
 
 RMS change in effective potential (target) :  0.138344E-07  ( 0.100000E-05)
 Absolute change in total energy   (target) :  0.576449E-08  ( 0.100000E-06)
 Charge distance                   (target) :  0.535394E-09  ( 0.100000E-04)
 Abs. change in max-nonIBS-force   (target) :  0.597675E-08  ( 0.250000E-05)
 
++++++++++++++++++++++++++++++++++++++++++++++++++++++++++++++++++++++++++++++++
| Convergence targets achieved. Performing final SCF iteration                 +
++++++++++++++++++++++++++++++++++++++++++++++++++++++++++++++++++++++++++++++++
 Total energy                               :       -76.18517779
 _______________________________________________________________
 Fermi energy                               :         0.26572189
 Kinetic energy                             :        76.58777853
 Coulomb energy                             :      -141.81044698
 Exchange energy                            :       -10.52220365
 Correlation energy                         :        -0.43108184
 DFT-D2 dispersion correction               :        -0.00922385
 
 DOS at Fermi energy (states/Ha/cell)       :         0.81083901
 
 Electron charges :
     core                                   :         4.00000000
     core leakage                           :         0.00133673
     valence                                :         8.00000000
     interstitial                           :         4.44216242
     charge in muffin-tin spheres :
                  atom     1     C          :         3.77891879
                  atom     2     C          :         3.77891879
     total charge in muffin-tins            :         7.55783758
     total charge                           :        12.00000000
 
++++++++++++++++++++++++++++++++++++++++++++++++++++++++++++++++++++++++++++++++
| Self-consistent loop stopped                                                 +
++++++++++++++++++++++++++++++++++++++++++++++++++++++++++++++++++++++++++++++++
 STATE.OUT is written
 
--------------------------------------------------------------------------------
| Writing atomic positions and forces                                          -
--------------------------------------------------------------------------------
 
 Atomic positions (lattice) :
 atom     1   C  :     0.00000000    0.00000000    0.00000000
 atom     2   C  :     0.33333333    0.33333333    0.00000000
 
 Total atomic forces including IBS (cartesian) :
 atom     1   C  :     0.00000000    0.05160119    0.00000000
 atom     2   C  :     0.00000000   -0.05160119    0.00000000
 
 Atomic force components including IBS (cartesian) :
 atom     1   C  :     0.00000000    0.03175382    0.00000000   HF force
                 :     0.00000000    0.02016598    0.00000000   core correction
                 :     0.00000000   -0.00020488    0.00000000   IBS correction
                 :     0.00000000   -0.00011373    0.00000000   DFT-D2 force
 atom     2   C  :     0.00000000   -0.03175382    0.00000000   HF force
                 :     0.00000000   -0.02016598    0.00000000   core correction
                 :     0.00000000    0.00020488    0.00000000   IBS correction
                 :     0.00000000    0.00011373    0.00000000   DFT-D2 force
 
********************************************************************************
| Groundstate module stopped                                                   *
********************************************************************************
 
********************************************************************************
| Structure-optimization module started                                        *
********************************************************************************
 Output level for this task is set to normal
 
 Maximum displacement tau_BFGS   is         :         0.3000
 Maximum displacement tau_newton is         :         0.8000
 
++++++++++++++++++++++++++++++++++++++++++++++++++++++++++++++++++++++++++++++++
| Use harmonic method for optimizing atomic positions                          +
++++++++++++++++++++++++++++++++++++++++++++++++++++++++++++++++++++++++++++++++
 
--------------------------------------------------------------------------------
| Optimization step 0: Initialize optimization                                 -
--------------------------------------------------------------------------------
 Maximum force magnitude           (target) :         0.05160119  (  0.00001000)
 Total energy at this optimization step     :       -76.18517779
 
 Atomic positions at this step (lattice) :
 atom     1   C  :     0.00000000    0.00000000    0.00000000
 atom     2   C  :     0.33333333    0.33333333    0.00000000
 
 Total atomic forces including IBS (cartesian) :
 atom     1   C  :     0.00000000    0.05160119    0.00000000
 atom     2   C  :     0.00000000   -0.05160119    0.00000000
 
--------------------------------------------------------------------------------
| Optimization step    1    (method = harmonic)                                -
--------------------------------------------------------------------------------
 Number of scf iterations                   :        13  (full newton step)
 Maximum force magnitude           (target) :         0.01184061  (  0.00001000)
 Total energy at this optimization step     :       -76.18683906
 
 Atomic positions at this step (lattice) :
 atom     1   C  :     0.00000000    0.00000000    0.00000000
 atom     2   C  :     0.32309114    0.32309114    0.00000000
 
 Total atomic forces including IBS (cartesian) :
 atom     1   C  :     0.00000000   -0.01184061    0.00000000
 atom     2   C  :     0.00000000    0.01184061    0.00000000
 
 Time spent in this optimization step       :      1022.92 seconds
 
--------------------------------------------------------------------------------
| Optimization step    2    (method = harmonic)                                -
--------------------------------------------------------------------------------
 Number of scf iterations                   :        12  (full harmonic step)
 Maximum force magnitude           (target) :         0.00034874  (  0.00001000)
 Total energy at this optimization step     :       -76.18692974
 
 Atomic positions at this step (lattice) :
 atom     1   C  :     0.00000000    0.00000000    0.00000000
 atom     2   C  :     0.32500272    0.32500272    0.00000000
 
 Total atomic forces including IBS (cartesian) :
 atom     1   C  :     0.00000000    0.00034874    0.00000000
 atom     2   C  :     0.00000000   -0.00034874    0.00000000
 
 Time spent in this optimization step       :       946.17 seconds
 
--------------------------------------------------------------------------------
| Optimization step    3    (method = harmonic)                                -
--------------------------------------------------------------------------------
 Number of scf iterations                   :        12  (full harmonic step)
 Maximum force magnitude           (target) :         0.00000209  (  0.00001000)
 Total energy at this optimization step     :       -76.18692975
 
 Atomic positions at this step (lattice) :
 atom     1   C  :     0.00000000    0.00000000    0.00000000
 atom     2   C  :     0.32494803    0.32494803    0.00000000
 
 Total atomic forces including IBS (cartesian) :
 atom     1   C  :     0.00000000    0.00000209    0.00000000
 atom     2   C  :     0.00000000   -0.00000209    0.00000000
 
 Time spent in this optimization step       :       943.17 seconds
 
++++++++++++++++++++++++++++++++++++++++++++++++++++++++++++++++++++++++++++++++
| Force convergence target achieved                                            +
++++++++++++++++++++++++++++++++++++++++++++++++++++++++++++++++++++++++++++++++
 Total energy                               :       -76.18692975
 _______________________________________________________________
 Fermi energy                               :         0.26584409
 Kinetic energy                             :        76.55498600
 Coulomb energy                             :      -141.78476725
 Exchange energy                            :       -10.51678277
 Correlation energy                         :        -0.43114931
 DFT-D2 dispersion correction               :        -0.00921642
 
 DOS at Fermi energy (states/Ha/cell)       :         0.86462883
 
 Electron charges :
     core                                   :         4.00000000
     core leakage                           :         0.00133500
     valence                                :         8.00000000
     interstitial                           :         4.45899982
     charge in muffin-tin spheres :
                  atom     1     C          :         3.77050009
                  atom     2     C          :         3.77050009
     total charge in muffin-tins            :         7.54100018
     total charge                           :        12.00000000
 
 Optimized atomic positions (lattice) :
 atom     1   C  :     0.00000000    0.00000000    0.00000000
 atom     2   C  :     0.32494803    0.32494803    0.00000000
 
 Total atomic forces including IBS (cartesian) :
 atom     1   C  :     0.00000000    0.00000209    0.00000000
 atom     2   C  :     0.00000000   -0.00000209    0.00000000
 
 Atomic force components including IBS (cartesian) :
 atom     1   C  :     0.00000000   -0.02199450    0.00000000   HF force
                 :     0.00000000    0.02185460    0.00000000   core correction
                 :     0.00000000    0.00025089    0.00000000   IBS correction
                 :     0.00000000   -0.00010890    0.00000000   DFT-D2 force
 atom     2   C  :     0.00000000    0.02199450    0.00000000   HF force
                 :     0.00000000   -0.02185460    0.00000000   core correction
                 :     0.00000000   -0.00025089    0.00000000   IBS correction
                 :     0.00000000    0.00010890    0.00000000   DFT-D2 force
 
********************************************************************************
| Structure-optimization module stopped                                        *
********************************************************************************
 
 Total time spent (seconds)                 :      3941.38
 
================================================================================
| EXCITING BORON stopped                                                       =
================================================================================
