   4    4    1    2
  7.0722513e+01   4.1354162e-10   4.1354162e-10   4.1354162e-10   5.0000000e-16
            1.000000e-04
  CAR
 DOS and projected DOS file by LOBSTER. Energy is shifted such that the Fermi level lies at 0 eV. 
      6.70846963     -13.49355057   101       1.65796458       1.00000000
-15.15152   0.00000   0.00000   5.08359   5.08360
-14.94949   0.51558   0.51555   5.18775   5.18776
-14.74747   0.41254   0.41254   5.27109   5.27110
-14.54545   0.41349   0.41349   5.35463   5.35463
-14.34343   0.41491   0.41490   5.43845   5.43845
-14.14141   0.41678   0.41677   5.52264   5.52265
-13.93939   0.48202   0.48202   5.62002   5.62002
-13.73737   0.57695   0.57695   5.73658   5.73658
-13.53535   0.45233   0.45233   5.82796   5.82796
-13.33333   0.45465   0.45465   5.91980   5.91981
-13.13131   0.45763   0.45763   6.01226   6.01226
-12.92929   0.46127   0.46127   6.10544   6.10544
-12.72727   0.75719   0.75719   6.25841   6.25841
-12.52525   0.69655   0.69655   6.39913   6.39913
-12.32323   0.70465   0.70465   6.54148   6.54148
-12.12121   0.86889   0.86889   6.71702   6.71702
-11.91919   1.40101   1.40101   7.00005   7.00005
-11.71717   0.00000   0.00000   7.00005   7.00005
-11.51515   0.00000   0.00000   7.00005   7.00005
-11.31313   0.00000   0.00000   7.00005   7.00005
-11.11111   0.00000   0.00000   7.00005   7.00005
-10.90909   0.00000   0.00000   7.00005   7.00005
-10.70707   0.00000   0.00000   7.00005   7.00005
-10.50505   0.00000   0.00000   7.00005   7.00005
-10.30303   0.00000   0.00000   7.00005   7.00005
-10.10101   0.00000   0.00000   7.00005   7.00005
 -9.89899   0.00000   0.00000   7.00005   7.00005
 -9.69697   0.00000   0.00000   7.00005   7.00005
 -9.49495   0.00000   0.00000   7.00005   7.00005
 -9.29293   0.00000   0.00000   7.00005   7.00005
 -9.09091   0.00000   0.00000   7.00005   7.00005
 -8.88889   0.00000   0.00000   7.00005   7.00005
 -8.68687   0.00000   0.00000   7.00005   7.00005
 -8.48485   0.00000   0.00000   7.00005   7.00005
 -8.28283   0.00000   0.00000   7.00005   7.00005
 -8.08081   0.00000   0.00000   7.00005   7.00005
 -7.87879   0.00000   0.00000   7.00005   7.00005
 -7.67677   0.00000   0.00000   7.00005   7.00005
 -7.47475   0.00000   0.00000   7.00005   7.00005
 -7.27273   0.00000   0.00000   7.00005   7.00005
 -7.07071   0.00000   0.00000   7.00005   7.00005
 -6.86869   0.00000   0.00000   7.00005   7.00005
 -6.66667   0.00000   0.00000   7.00005   7.00005
 -6.46465   0.00000   0.00000   7.00005   7.00005
 -6.26263   0.00000   0.00000   7.00005   7.00005
 -6.06061   0.00000   0.00000   7.00005   7.00005
 -5.85859   0.00000   0.00000   7.00005   7.00005
 -5.65657   0.00000   0.00000   7.00005   7.00005
 -5.45455   0.00000   0.00000   7.00005   7.00005
 -5.25253   0.00000   0.00000   7.00005   7.00005
 -5.05051   0.00000   0.00000   7.00005   7.00005
 -4.84848   0.16057   0.16057   7.03249   7.03249
 -4.64646   0.44402   0.44402   7.12219   7.12219
 -4.44444   0.65289   0.65290   7.25409   7.25409
 -4.24242   1.02729   1.02733   7.46162   7.46163
 -4.04040   0.67040   0.67040   7.59705   7.59706
 -3.83838   0.73374   0.73374   7.74528   7.74529
 -3.63636   1.84076   1.84080   8.11716   8.11717
 -3.43434   2.12335   2.12334   8.54611   8.54613
 -3.23232   2.25065   2.25064   9.00079   9.00080
 -3.03030   2.38723   2.38734   9.48306   9.48309
 -2.82828   2.68429   2.68426  10.02534  10.02537
 -2.62626   3.77905   3.77902  10.78878  10.78881
 -2.42424   3.24184   3.24177  11.44370  11.44371
 -2.22222   2.49746   2.49750  11.94824  11.94826
 -2.02020   1.59576   1.59571  12.27061  12.27062
 -1.81818   2.15599   2.15615  12.70617  12.70621
 -1.61616   2.12531   2.12517  13.13552  13.13553
 -1.41414   1.68848   1.68846  13.47663  13.47664
 -1.21212   1.84940   1.84941  13.85024  13.85026
 -1.01010   2.50568   2.50578  14.35644  14.35648
 -0.80808   3.72655   3.72647  15.10928  15.10930
 -0.60606   2.47634   2.47632  15.60955  15.60956
 -0.40404   1.38753   1.38750  15.88986  15.88987
 -0.20202   0.41128   0.41129  15.97295  15.97295
  0.00000   0.13445   0.13444  16.00011  16.00011
  0.20202   0.00000   0.00000  16.00011  16.00011
  0.40404   0.00000   0.00000  16.00011  16.00011
  0.60606   0.00000   0.00000  16.00011  16.00011
  0.80808   0.00000   0.00000  16.00011  16.00011
  1.01010   0.00000   0.00000  16.00011  16.00011
  1.21212   0.00000   0.00000  16.00011  16.00011
  1.41414   0.00000   0.00000  16.00011  16.00011
  1.61616   0.00000   0.00000  16.00011  16.00011
  1.81818   5.01915   5.02132  17.01408  17.01452
  2.02020   2.81275   2.81224  17.58231  17.58265
  2.22222   3.10984   3.10985  18.21056  18.21090
  2.42424   3.08269   3.08267  18.83333  18.83367
  2.62626   3.06471   3.06479  19.45246  19.45282
  2.82828   2.31986   2.31973  19.92112  19.92145
  3.03030   2.42557   2.42547  20.41114  20.41144
  3.23232   3.16730   3.16738  21.05099  21.05132
  3.43434   1.46347   1.46333  21.34664  21.34694
  3.63636   1.06266   1.06263  21.56132  21.56161
  3.83838   0.80609   0.80610  21.72417  21.72446
  4.04040   0.87009   0.87012  21.89994  21.90024
  4.24242   0.85827   0.85823  22.07333  22.07362
  4.44444   0.71548   0.71546  22.21787  22.21816
  4.64646   0.74006   0.74005  22.36738  22.36766
  4.84848   1.31891   1.31893  22.63383  22.63412
  5.05051   1.39823   1.39821  22.91630  22.91658
      5.05050505     -15.15151515   101       1.65796458       1.00000000; Z= 92; 6s 7s 6p_y 6p_z 6p_x 6d_xy 6d_yz 6d_z^2 6d_xz 6d_x^2-y^2 5f_y(3x^2-y^2) 5f_xyz 5f_yz^2 5f_z^3 5f_xz^2 5f_z(x^2-y^2) 5f_x(x^2-3y^2) 
-15.15152   0.00000   0.00000   0.00000   0.00000   0.00000   0.00000   0.00000   0.00000   0.00000   0.00000   0.00000   0.00000   0.00000   0.00000   0.00000   0.00000   0.00000   0.00000   0.00000   0.00000   0.00000   0.00000   0.00000   0.00000   0.00000   0.00000   0.00000   0.00000   0.00000   0.00000   0.00000   0.00000   0.00000   0.00000
-14.94949   0.00198   0.00198   0.00909   0.00909   0.05622   0.05622   0.05637   0.05635   0.05636   0.05637   0.00000   0.00000   0.00000   0.00000   0.01597   0.01597   0.00000   0.00000   0.01600   0.01600   0.00023   0.00023   0.00000   0.00000   0.00014   0.00014   0.00038   0.00038   0.00014   0.00014   0.00000   0.00000   0.00024   0.00024
-14.74747   0.00139   0.00139   0.00705   0.00705   0.04622   0.04622   0.04661   0.04659   0.04659   0.04661   0.00000   0.00000   0.00000   0.00000   0.01281   0.01280   0.00000   0.00000   0.01275   0.01275   0.00024   0.00024   0.00000   0.00000   0.00014   0.00014   0.00039   0.00039   0.00015   0.00015   0.00000   0.00000   0.00025   0.00025
-14.54545   0.00138   0.00138   0.00721   0.00721   0.04695   0.04695   0.04721   0.04719   0.04719   0.04721   0.00000   0.00000   0.00000   0.00000   0.01243   0.01243   0.00000   0.00000   0.01239   0.01239   0.00027   0.00027   0.00000   0.00000   0.00016   0.00016   0.00044   0.00044   0.00016   0.00016   0.00000   0.00000   0.00027   0.00027
-14.34343   0.00138   0.00138   0.00739   0.00739   0.04774   0.04774   0.04787   0.04786   0.04786   0.04787   0.00000   0.00000   0.00000   0.00000   0.01207   0.01207   0.00000   0.00000   0.01206   0.01206   0.00030   0.00030   0.00000   0.00000   0.00018   0.00018   0.00049   0.00049   0.00018   0.00018   0.00000   0.00000   0.00030   0.00030
-14.14141   0.00137   0.00137   0.00758   0.00758   0.04860   0.04860   0.04858   0.04859   0.04859   0.04858   0.00000   0.00000   0.00000   0.00000   0.01172   0.01172   0.00000   0.00000   0.01174   0.01174   0.00033   0.00033   0.00000   0.00000   0.00020   0.00020   0.00053   0.00053   0.00020   0.00020   0.00000   0.00000   0.00033   0.00033
-13.93939   0.00143   0.00143   0.00839   0.00839   0.05755   0.05755   0.05705   0.05708   0.05708   0.05705   0.00000   0.00000   0.00000   0.00000   0.01351   0.01352   0.00000   0.00000   0.01365   0.01364   0.00044   0.00044   0.00000   0.00000   0.00026   0.00026   0.00070   0.00070   0.00026   0.00026   0.00000   0.00000   0.00044   0.00043
-13.73737   0.00150   0.00150   0.01057   0.01057   0.07186   0.07186   0.07178   0.07179   0.07180   0.07179   0.00000   0.00000   0.00000   0.00000   0.01375   0.01377   0.00000   0.00000   0.01390   0.01388   0.00077   0.00077   0.00000   0.00000   0.00046   0.00046   0.00124   0.00124   0.00047   0.00047   0.00000   0.00000   0.00078   0.00078
-13.53535   0.00101   0.00101   0.00787   0.00787   0.05717   0.05717   0.05762   0.05759   0.05760   0.05762   0.00000   0.00000   0.00000   0.00000   0.01014   0.01014   0.00000   0.00000   0.01015   0.01014   0.00072   0.00072   0.00000   0.00000   0.00043   0.00043   0.00118   0.00118   0.00044   0.00044   0.00000   0.00000   0.00074   0.00074
-13.33333   0.00097   0.00097   0.00793   0.00793   0.05810   0.05811   0.05839   0.05837   0.05838   0.05839   0.00000   0.00000   0.00000   0.00000   0.00965   0.00966   0.00000   0.00000   0.00968   0.00967   0.00079   0.00079   0.00000   0.00000   0.00048   0.00048   0.00128   0.00128   0.00048   0.00048   0.00000   0.00000   0.00080   0.00080
-13.13131   0.00093   0.00093   0.00800   0.00800   0.05914   0.05914   0.05925   0.05924   0.05924   0.05924   0.00000   0.00000   0.00000   0.00000   0.00919   0.00920   0.00000   0.00000   0.00923   0.00922   0.00086   0.00086   0.00000   0.00000   0.00052   0.00052   0.00139   0.00139   0.00052   0.00052   0.00000   0.00000   0.00087   0.00087
-12.92929   0.00088   0.00088   0.00807   0.00807   0.06027   0.06027   0.06020   0.06021   0.06020   0.06020   0.00000   0.00000   0.00000   0.00000   0.00876   0.00876   0.00000   0.00000   0.00881   0.00880   0.00094   0.00094   0.00000   0.00000   0.00056   0.00056   0.00150   0.00150   0.00056   0.00056   0.00000   0.00000   0.00094   0.00094
-12.72727   0.00093   0.00093   0.01193   0.01193   0.10249   0.10250   0.10161   0.10166   0.10167   0.10162   0.00001   0.00001   0.00001   0.00001   0.01218   0.01222   0.00001   0.00001   0.01248   0.01245   0.00192   0.00192   0.00000   0.00000   0.00115   0.00115   0.00305   0.00305   0.00115   0.00115   0.00000   0.00000   0.00191   0.00191
-12.52525   0.00057   0.00057   0.00899   0.00899   0.09577   0.09580   0.09650   0.09646   0.09650   0.09651   0.00001   0.00001   0.00001   0.00001   0.00821   0.00823   0.00001   0.00001   0.00835   0.00834   0.00215   0.00215   0.00000   0.00000   0.00129   0.00129   0.00348   0.00348   0.00130   0.00131   0.00000   0.00000   0.00217   0.00217
-12.32323   0.00048   0.00048   0.00817   0.00817   0.09807   0.09809   0.09841   0.09840   0.09842   0.09841   0.00001   0.00001   0.00001   0.00001   0.00700   0.00702   0.00001   0.00001   0.00712   0.00710   0.00235   0.00235   0.00000   0.00000   0.00141   0.00141   0.00377   0.00377   0.00142   0.00142   0.00000   0.00000   0.00236   0.00236
-12.12121   0.00040   0.00040   0.00785   0.00785   0.12267   0.12267   0.12259   0.12260   0.12260   0.12258   0.00000   0.00000   0.00000   0.00000   0.00659   0.00660   0.00000   0.00000   0.00667   0.00666   0.00321   0.00321   0.00000   0.00000   0.00193   0.00193   0.00514   0.00514   0.00193   0.00193   0.00000   0.00000   0.00321   0.00321
-11.91919   0.00009   0.00009   0.00958   0.00958   0.20368   0.20361   0.20041   0.20061   0.20052   0.20039   0.00000   0.00000   0.00000   0.00000   0.00666   0.00669   0.00000   0.00000   0.00686   0.00683   0.00569   0.00569   0.00000   0.00000   0.00342   0.00342   0.00897   0.00898   0.00337   0.00337   0.00000   0.00000   0.00561   0.00561
-11.71717   0.00000   0.00000   0.00000   0.00000   0.00000   0.00000   0.00000   0.00000   0.00000   0.00000   0.00000   0.00000   0.00000   0.00000   0.00000   0.00000   0.00000   0.00000   0.00000   0.00000   0.00000   0.00000   0.00000   0.00000   0.00000   0.00000   0.00000   0.00000   0.00000   0.00000   0.00000   0.00000   0.00000   0.00000
-11.51515   0.00000   0.00000   0.00000   0.00000   0.00000   0.00000   0.00000   0.00000   0.00000   0.00000   0.00000   0.00000   0.00000   0.00000   0.00000   0.00000   0.00000   0.00000   0.00000   0.00000   0.00000   0.00000   0.00000   0.00000   0.00000   0.00000   0.00000   0.00000   0.00000   0.00000   0.00000   0.00000   0.00000   0.00000
-11.31313   0.00000   0.00000   0.00000   0.00000   0.00000   0.00000   0.00000   0.00000   0.00000   0.00000   0.00000   0.00000   0.00000   0.00000   0.00000   0.00000   0.00000   0.00000   0.00000   0.00000   0.00000   0.00000   0.00000   0.00000   0.00000   0.00000   0.00000   0.00000   0.00000   0.00000   0.00000   0.00000   0.00000   0.00000
-11.11111   0.00000   0.00000   0.00000   0.00000   0.00000   0.00000   0.00000   0.00000   0.00000   0.00000   0.00000   0.00000   0.00000   0.00000   0.00000   0.00000   0.00000   0.00000   0.00000   0.00000   0.00000   0.00000   0.00000   0.00000   0.00000   0.00000   0.00000   0.00000   0.00000   0.00000   0.00000   0.00000   0.00000   0.00000
-10.90909   0.00000   0.00000   0.00000   0.00000   0.00000   0.00000   0.00000   0.00000   0.00000   0.00000   0.00000   0.00000   0.00000   0.00000   0.00000   0.00000   0.00000   0.00000   0.00000   0.00000   0.00000   0.00000   0.00000   0.00000   0.00000   0.00000   0.00000   0.00000   0.00000   0.00000   0.00000   0.00000   0.00000   0.00000
-10.70707   0.00000   0.00000   0.00000   0.00000   0.00000   0.00000   0.00000   0.00000   0.00000   0.00000   0.00000   0.00000   0.00000   0.00000   0.00000   0.00000   0.00000   0.00000   0.00000   0.00000   0.00000   0.00000   0.00000   0.00000   0.00000   0.00000   0.00000   0.00000   0.00000   0.00000   0.00000   0.00000   0.00000   0.00000
-10.50505   0.00000   0.00000   0.00000   0.00000   0.00000   0.00000   0.00000   0.00000   0.00000   0.00000   0.00000   0.00000   0.00000   0.00000   0.00000   0.00000   0.00000   0.00000   0.00000   0.00000   0.00000   0.00000   0.00000   0.00000   0.00000   0.00000   0.00000   0.00000   0.00000   0.00000   0.00000   0.00000   0.00000   0.00000
-10.30303   0.00000   0.00000   0.00000   0.00000   0.00000   0.00000   0.00000   0.00000   0.00000   0.00000   0.00000   0.00000   0.00000   0.00000   0.00000   0.00000   0.00000   0.00000   0.00000   0.00000   0.00000   0.00000   0.00000   0.00000   0.00000   0.00000   0.00000   0.00000   0.00000   0.00000   0.00000   0.00000   0.00000   0.00000
-10.10101   0.00000   0.00000   0.00000   0.00000   0.00000   0.00000   0.00000   0.00000   0.00000   0.00000   0.00000   0.00000   0.00000   0.00000   0.00000   0.00000   0.00000   0.00000   0.00000   0.00000   0.00000   0.00000   0.00000   0.00000   0.00000   0.00000   0.00000   0.00000   0.00000   0.00000   0.00000   0.00000   0.00000   0.00000
 -9.89899   0.00000   0.00000   0.00000   0.00000   0.00000   0.00000   0.00000   0.00000   0.00000   0.00000   0.00000   0.00000   0.00000   0.00000   0.00000   0.00000   0.00000   0.00000   0.00000   0.00000   0.00000   0.00000   0.00000   0.00000   0.00000   0.00000   0.00000   0.00000   0.00000   0.00000   0.00000   0.00000   0.00000   0.00000
 -9.69697   0.00000   0.00000   0.00000   0.00000   0.00000   0.00000   0.00000   0.00000   0.00000   0.00000   0.00000   0.00000   0.00000   0.00000   0.00000   0.00000   0.00000   0.00000   0.00000   0.00000   0.00000   0.00000   0.00000   0.00000   0.00000   0.00000   0.00000   0.00000   0.00000   0.00000   0.00000   0.00000   0.00000   0.00000
 -9.49495   0.00000   0.00000   0.00000   0.00000   0.00000   0.00000   0.00000   0.00000   0.00000   0.00000   0.00000   0.00000   0.00000   0.00000   0.00000   0.00000   0.00000   0.00000   0.00000   0.00000   0.00000   0.00000   0.00000   0.00000   0.00000   0.00000   0.00000   0.00000   0.00000   0.00000   0.00000   0.00000   0.00000   0.00000
 -9.29293   0.00000   0.00000   0.00000   0.00000   0.00000   0.00000   0.00000   0.00000   0.00000   0.00000   0.00000   0.00000   0.00000   0.00000   0.00000   0.00000   0.00000   0.00000   0.00000   0.00000   0.00000   0.00000   0.00000   0.00000   0.00000   0.00000   0.00000   0.00000   0.00000   0.00000   0.00000   0.00000   0.00000   0.00000
 -9.09091   0.00000   0.00000   0.00000   0.00000   0.00000   0.00000   0.00000   0.00000   0.00000   0.00000   0.00000   0.00000   0.00000   0.00000   0.00000   0.00000   0.00000   0.00000   0.00000   0.00000   0.00000   0.00000   0.00000   0.00000   0.00000   0.00000   0.00000   0.00000   0.00000   0.00000   0.00000   0.00000   0.00000   0.00000
 -8.88889   0.00000   0.00000   0.00000   0.00000   0.00000   0.00000   0.00000   0.00000   0.00000   0.00000   0.00000   0.00000   0.00000   0.00000   0.00000   0.00000   0.00000   0.00000   0.00000   0.00000   0.00000   0.00000   0.00000   0.00000   0.00000   0.00000   0.00000   0.00000   0.00000   0.00000   0.00000   0.00000   0.00000   0.00000
 -8.68687   0.00000   0.00000   0.00000   0.00000   0.00000   0.00000   0.00000   0.00000   0.00000   0.00000   0.00000   0.00000   0.00000   0.00000   0.00000   0.00000   0.00000   0.00000   0.00000   0.00000   0.00000   0.00000   0.00000   0.00000   0.00000   0.00000   0.00000   0.00000   0.00000   0.00000   0.00000   0.00000   0.00000   0.00000
 -8.48485   0.00000   0.00000   0.00000   0.00000   0.00000   0.00000   0.00000   0.00000   0.00000   0.00000   0.00000   0.00000   0.00000   0.00000   0.00000   0.00000   0.00000   0.00000   0.00000   0.00000   0.00000   0.00000   0.00000   0.00000   0.00000   0.00000   0.00000   0.00000   0.00000   0.00000   0.00000   0.00000   0.00000   0.00000
 -8.28283   0.00000   0.00000   0.00000   0.00000   0.00000   0.00000   0.00000   0.00000   0.00000   0.00000   0.00000   0.00000   0.00000   0.00000   0.00000   0.00000   0.00000   0.00000   0.00000   0.00000   0.00000   0.00000   0.00000   0.00000   0.00000   0.00000   0.00000   0.00000   0.00000   0.00000   0.00000   0.00000   0.00000   0.00000
 -8.08081   0.00000   0.00000   0.00000   0.00000   0.00000   0.00000   0.00000   0.00000   0.00000   0.00000   0.00000   0.00000   0.00000   0.00000   0.00000   0.00000   0.00000   0.00000   0.00000   0.00000   0.00000   0.00000   0.00000   0.00000   0.00000   0.00000   0.00000   0.00000   0.00000   0.00000   0.00000   0.00000   0.00000   0.00000
 -7.87879   0.00000   0.00000   0.00000   0.00000   0.00000   0.00000   0.00000   0.00000   0.00000   0.00000   0.00000   0.00000   0.00000   0.00000   0.00000   0.00000   0.00000   0.00000   0.00000   0.00000   0.00000   0.00000   0.00000   0.00000   0.00000   0.00000   0.00000   0.00000   0.00000   0.00000   0.00000   0.00000   0.00000   0.00000
 -7.67677   0.00000   0.00000   0.00000   0.00000   0.00000   0.00000   0.00000   0.00000   0.00000   0.00000   0.00000   0.00000   0.00000   0.00000   0.00000   0.00000   0.00000   0.00000   0.00000   0.00000   0.00000   0.00000   0.00000   0.00000   0.00000   0.00000   0.00000   0.00000   0.00000   0.00000   0.00000   0.00000   0.00000   0.00000
 -7.47475   0.00000   0.00000   0.00000   0.00000   0.00000   0.00000   0.00000   0.00000   0.00000   0.00000   0.00000   0.00000   0.00000   0.00000   0.00000   0.00000   0.00000   0.00000   0.00000   0.00000   0.00000   0.00000   0.00000   0.00000   0.00000   0.00000   0.00000   0.00000   0.00000   0.00000   0.00000   0.00000   0.00000   0.00000
 -7.27273   0.00000   0.00000   0.00000   0.00000   0.00000   0.00000   0.00000   0.00000   0.00000   0.00000   0.00000   0.00000   0.00000   0.00000   0.00000   0.00000   0.00000   0.00000   0.00000   0.00000   0.00000   0.00000   0.00000   0.00000   0.00000   0.00000   0.00000   0.00000   0.00000   0.00000   0.00000   0.00000   0.00000   0.00000
 -7.07071   0.00000   0.00000   0.00000   0.00000   0.00000   0.00000   0.00000   0.00000   0.00000   0.00000   0.00000   0.00000   0.00000   0.00000   0.00000   0.00000   0.00000   0.00000   0.00000   0.00000   0.00000   0.00000   0.00000   0.00000   0.00000   0.00000   0.00000   0.00000   0.00000   0.00000   0.00000   0.00000   0.00000   0.00000
 -6.86869   0.00000   0.00000   0.00000   0.00000   0.00000   0.00000   0.00000   0.00000   0.00000   0.00000   0.00000   0.00000   0.00000   0.00000   0.00000   0.00000   0.00000   0.00000   0.00000   0.00000   0.00000   0.00000   0.00000   0.00000   0.00000   0.00000   0.00000   0.00000   0.00000   0.00000   0.00000   0.00000   0.00000   0.00000
 -6.66667   0.00000   0.00000   0.00000   0.00000   0.00000   0.00000   0.00000   0.00000   0.00000   0.00000   0.00000   0.00000   0.00000   0.00000   0.00000   0.00000   0.00000   0.00000   0.00000   0.00000   0.00000   0.00000   0.00000   0.00000   0.00000   0.00000   0.00000   0.00000   0.00000   0.00000   0.00000   0.00000   0.00000   0.00000
 -6.46465   0.00000   0.00000   0.00000   0.00000   0.00000   0.00000   0.00000   0.00000   0.00000   0.00000   0.00000   0.00000   0.00000   0.00000   0.00000   0.00000   0.00000   0.00000   0.00000   0.00000   0.00000   0.00000   0.00000   0.00000   0.00000   0.00000   0.00000   0.00000   0.00000   0.00000   0.00000   0.00000   0.00000   0.00000
 -6.26263   0.00000   0.00000   0.00000   0.00000   0.00000   0.00000   0.00000   0.00000   0.00000   0.00000   0.00000   0.00000   0.00000   0.00000   0.00000   0.00000   0.00000   0.00000   0.00000   0.00000   0.00000   0.00000   0.00000   0.00000   0.00000   0.00000   0.00000   0.00000   0.00000   0.00000   0.00000   0.00000   0.00000   0.00000
 -6.06061   0.00000   0.00000   0.00000   0.00000   0.00000   0.00000   0.00000   0.00000   0.00000   0.00000   0.00000   0.00000   0.00000   0.00000   0.00000   0.00000   0.00000   0.00000   0.00000   0.00000   0.00000   0.00000   0.00000   0.00000   0.00000   0.00000   0.00000   0.00000   0.00000   0.00000   0.00000   0.00000   0.00000   0.00000
 -5.85859   0.00000   0.00000   0.00000   0.00000   0.00000   0.00000   0.00000   0.00000   0.00000   0.00000   0.00000   0.00000   0.00000   0.00000   0.00000   0.00000   0.00000   0.00000   0.00000   0.00000   0.00000   0.00000   0.00000   0.00000   0.00000   0.00000   0.00000   0.00000   0.00000   0.00000   0.00000   0.00000   0.00000   0.00000
 -5.65657   0.00000   0.00000   0.00000   0.00000   0.00000   0.00000   0.00000   0.00000   0.00000   0.00000   0.00000   0.00000   0.00000   0.00000   0.00000   0.00000   0.00000   0.00000   0.00000   0.00000   0.00000   0.00000   0.00000   0.00000   0.00000   0.00000   0.00000   0.00000   0.00000   0.00000   0.00000   0.00000   0.00000   0.00000
 -5.45455   0.00000   0.00000   0.00000   0.00000   0.00000   0.00000   0.00000   0.00000   0.00000   0.00000   0.00000   0.00000   0.00000   0.00000   0.00000   0.00000   0.00000   0.00000   0.00000   0.00000   0.00000   0.00000   0.00000   0.00000   0.00000   0.00000   0.00000   0.00000   0.00000   0.00000   0.00000   0.00000   0.00000   0.00000
 -5.25253   0.00000   0.00000   0.00000   0.00000   0.00000   0.00000   0.00000   0.00000   0.00000   0.00000   0.00000   0.00000   0.00000   0.00000   0.00000   0.00000   0.00000   0.00000   0.00000   0.00000   0.00000   0.00000   0.00000   0.00000   0.00000   0.00000   0.00000   0.00000   0.00000   0.00000   0.00000   0.00000   0.00000   0.00000
 -5.05051   0.00000   0.00000   0.00000   0.00000   0.00000   0.00000   0.00000   0.00000   0.00000   0.00000   0.00000   0.00000   0.00000   0.00000   0.00000   0.00000   0.00000   0.00000   0.00000   0.00000   0.00000   0.00000   0.00000   0.00000   0.00000   0.00000   0.00000   0.00000   0.00000   0.00000   0.00000   0.00000   0.00000   0.00000
 -4.84848   0.00001   0.00001   0.00010   0.00010   0.00027   0.00027   0.00032   0.00031   0.00031   0.00032   0.00000   0.00000   0.00000   0.00000   0.01867   0.01828   0.00000   0.00000   0.01649   0.01688   0.00021   0.00021  -0.00000  -0.00000   0.00013   0.00013   0.00038   0.00038   0.00014   0.00014   0.00000   0.00000   0.00024   0.00024
 -4.64646   0.00017   0.00017   0.00250   0.00250   0.00138   0.00138   0.00143   0.00143   0.00143   0.00144   0.00005   0.00005   0.00005   0.00005   0.04585   0.04576   0.00004   0.00004   0.04542   0.04550   0.00119   0.00119  -0.00000  -0.00000   0.00072   0.00072   0.00198   0.00197   0.00075   0.00075   0.00002   0.00002   0.00124   0.00125
 -4.44444   0.00092   0.00092   0.00965   0.00965   0.00283   0.00283   0.00295   0.00293   0.00294   0.00296   0.00017   0.00017   0.00017   0.00018   0.06079   0.06085   0.00015   0.00015   0.06127   0.06122   0.00285   0.00285   0.00000   0.00000   0.00173   0.00173   0.00474   0.00471   0.00179   0.00181   0.00005   0.00005   0.00298   0.00300
 -4.24242   0.00387   0.00387   0.03088   0.03088   0.00418   0.00418   0.00428   0.00427   0.00428   0.00429   0.00053   0.00053   0.00053   0.00053   0.08493   0.08492   0.00051   0.00051   0.08514   0.08515   0.00552   0.00552   0.00000   0.00000   0.00335   0.00335   0.00897   0.00894   0.00340   0.00341   0.00008   0.00008   0.00564   0.00565
 -4.04040   0.00207   0.00207   0.01605   0.01605   0.00416   0.00416   0.00415   0.00415   0.00415   0.00415   0.00134   0.00135   0.00135   0.00135   0.04896   0.04896   0.00137   0.00137   0.04912   0.04912   0.00652   0.00652   0.00000   0.00000   0.00396   0.00396   0.01033   0.01033   0.00395   0.00395   0.00011   0.00011   0.00649   0.00649
 -3.83838   0.00200   0.00200   0.01556   0.01556   0.00447   0.00447   0.00426   0.00428   0.00429   0.00427   0.01133   0.01134   0.01140   0.01139   0.03910   0.03923   0.01158   0.01158   0.04008   0.03995   0.00830   0.00831   0.00000   0.00000   0.00511   0.00510   0.01257   0.01261   0.00500   0.00498   0.00027   0.00027   0.00795   0.00793
 -3.63636   0.00329   0.00329   0.03043   0.03044   0.00542   0.00542   0.00519   0.00521   0.00522   0.00520   0.09068   0.09068   0.09079   0.09079   0.03712   0.03724   0.09156   0.09156   0.03810   0.03799   0.01411   0.01411   0.00001   0.00001   0.00920   0.00920   0.02085   0.02088   0.00909   0.00908   0.00180   0.00180   0.01369   0.01367
 -3.43434   0.00417   0.00417   0.03792   0.03792   0.00647   0.00647   0.00641   0.00641   0.00641   0.00641   0.09738   0.09738   0.09739   0.09740   0.03761   0.03765   0.09752   0.09752   0.03784   0.03781   0.02092   0.02092   0.00001   0.00001   0.01456   0.01456   0.03034   0.03035   0.01455   0.01455   0.00504   0.00504   0.02085   0.02084
 -3.23232   0.00366   0.00366   0.03284   0.03284   0.00720   0.00719   0.00734   0.00734   0.00730   0.00730   0.09281   0.09280   0.09267   0.09268   0.02957   0.02957   0.09195   0.09193   0.02900   0.02901   0.03418   0.03419   0.00001   0.00001   0.02418   0.02418   0.04971   0.04972   0.02422   0.02422   0.00922   0.00922   0.03455   0.03455
 -3.03030   0.00319   0.00319   0.02943   0.02943   0.00786   0.00787   0.00786   0.00786   0.00786   0.00785   0.09010   0.09010   0.09009   0.09007   0.02174   0.02174   0.08992   0.08994   0.02163   0.02163   0.04581   0.04583   0.00001   0.00001   0.03332   0.03331   0.06429   0.06431   0.03328   0.03326   0.01455   0.01455   0.04563   0.04562
 -2.82828   0.00306   0.00306   0.03477   0.03477   0.01099   0.01100   0.01094   0.01094   0.01095   0.01094   0.07498   0.07498   0.07502   0.07498   0.02045   0.02045   0.07511   0.07514   0.02049   0.02050   0.07152   0.07156   0.00001   0.00001   0.05125   0.05125   0.10130   0.10137   0.05117   0.05112   0.02078   0.02077   0.07119   0.07113
 -2.62626   0.00288   0.00288   0.02881   0.02881   0.01593   0.01592   0.01581   0.01582   0.01589   0.01589   0.08376   0.08372   0.08346   0.08353   0.01650   0.01648   0.08300   0.08296   0.01620   0.01622   0.12939   0.12934   0.00001   0.00001   0.08986   0.08989   0.18516   0.18537   0.08960   0.08940   0.03017   0.03022   0.12778   0.12773
 -2.42424   0.00252   0.00252   0.01848   0.01848   0.01473   0.01473   0.01504   0.01502   0.01492   0.01494   0.07600   0.07575   0.07605   0.07629   0.01084   0.01083   0.07703   0.07703   0.01078   0.01078   0.09538   0.09539   0.00001   0.00001   0.07435   0.07431   0.13207   0.13174   0.07486   0.07507   0.04285   0.04286   0.09760   0.09774
 -2.22222   0.00218   0.00218   0.01440   0.01440   0.00780   0.00780   0.00775   0.00776   0.00776   0.00775   0.06469   0.06435   0.06420   0.06505   0.00309   0.00309   0.06427   0.06375   0.00311   0.00310   0.05489   0.05522   0.00000   0.00000   0.05765   0.05778   0.05072   0.05077   0.05751   0.05684   0.06077   0.06138   0.05483   0.05440
 -2.02020   0.00237   0.00237   0.01165   0.01165   0.00538   0.00538   0.00535   0.00535   0.00535   0.00536   0.01652   0.01682   0.01680   0.01619   0.00087   0.00087   0.01610   0.01642   0.00086   0.00086   0.03851   0.03829   0.00000   0.00000   0.04995   0.04997   0.02100   0.02099   0.04966   0.04961   0.06688   0.06712   0.03840   0.03842
 -1.81818   0.00357   0.00358   0.01146   0.01146   0.01091   0.01091   0.01090   0.01090   0.01090   0.01091   0.01018   0.01051   0.01057   0.01004   0.00140   0.00140   0.01042   0.01062   0.00138   0.00138   0.05688   0.05673   0.00000   0.00000   0.06696   0.06685   0.04170   0.04168   0.06729   0.06808   0.08380   0.08291   0.05713   0.05754
 -1.61616   0.00437   0.00437   0.00814   0.00814   0.01413   0.01412   0.01410   0.01410   0.01412   0.01411   0.01402   0.01402   0.01402   0.01402   0.00167   0.00167   0.01402   0.01402   0.00162   0.00162   0.05310   0.05310   0.00000   0.00000   0.05810   0.05809   0.04563   0.04563   0.05810   0.05810   0.06559   0.06559   0.05311   0.05310
 -1.41414   0.00282   0.00282   0.00215   0.00215   0.01275   0.01275   0.01274   0.01274   0.01275   0.01275   0.00830   0.00830   0.00830   0.00830   0.00202   0.00202   0.00830   0.00830   0.00200   0.00200   0.03818   0.03818   0.00000   0.00000   0.04063   0.04063   0.03452   0.03452   0.04063   0.04063   0.04430   0.04430   0.03818   0.03818