   4    4    1    2
  7.0722513e+01   4.1354162e-10   4.1354162e-10   4.1354162e-10   5.0000000e-16
            1.000000e-04
  CAR
 DOS and projected DOS file by LOBSTER. Energy is shifted such that the Fermi level lies at 0 eV. 
      6.70846963     -13.49355057   101       1.65796458       1.00000000
-15.15152   0.00000   0.00000   5.08359   5.08360
-14.94949   0.51558   0.51555   5.18775   5.18776
-14.74747   0.41254   0.41254   5.27109   5.27110
-14.54545   0.41349   0.41349   5.35463   5.35463
-14.34343   0.41491   0.41490   5.43845   5.43845
-14.14141   0.41678   0.41677   5.52264   5.52265
-13.93939   0.48202   0.48202   5.62002   5.62002
-13.73737   0.57695   0.57695   5.73658   5.73658
-13.53535   0.45233   0.45233   5.82796   5.82796
-13.33333   0.45465   0.45465   5.91980   5.91981
-13.13131   0.45763   0.45763   6.01226   6.01226
-12.92929   0.46127   0.46127   6.10544   6.10544
-12.72727   0.75719   0.75719   6.25841   6.25841
-12.52525   0.69655   0.69655   6.39913   6.39913
-12.32323   0.70465   0.70465   6.54148   6.54148
-12.12121   0.86889   0.86889   6.71702   6.71702
-11.91919   1.40101   1.40101   7.00005   7.00005
-11.71717   0.00000   0.00000   7.00005   7.00005
-11.51515   0.00000   0.00000   7.00005   7.00005
-11.31313   0.00000   0.00000   7.00005   7.00005
-11.11111   0.00000   0.00000   7.00005   7.00005
-10.90909   0.00000   0.00000   7.00005   7.00005
-10.70707   0.00000   0.00000   7.00005   7.00005
-10.50505   0.00000   0.00000   7.00005   7.00005
-10.30303   0.00000   0.00000   7.00005   7.00005
-10.10101   0.00000   0.00000   7.00005   7.00005
 -9.89899   0.00000   0.00000   7.00005   7.00005
 -9.69697   0.00000   0.00000   7.00005   7.00005
 -9.49495   0.00000   0.00000   7.00005   7.00005
 -9.29293   0.00000   0.00000   7.00005   7.00005
 -9.09091   0.00000   0.00000   7.00005   7.00005
 -8.88889   0.00000   0.00000   7.00005   7.00005
 -8.68687   0.00000   0.00000   7.00005   7.00005
 -8.48485   0.00000   0.00000   7.00005   7.00005
 -8.28283   0.00000   0.00000   7.00005   7.00005
 -8.08081   0.00000   0.00000   7.00005   7.00005
 -7.87879   0.00000   0.00000   7.00005   7.00005
 -7.67677   0.00000   0.00000   7.00005   7.00005
 -7.47475   0.00000   0.00000   7.00005   7.00005
 -7.27273   0.00000   0.00000   7.00005   7.00005
 -7.07071   0.00000   0.00000   7.00005   7.00005
 -6.86869   0.00000   0.00000   7.00005   7.00005
 -6.66667   0.00000   0.00000   7.00005   7.00005
 -6.46465   0.00000   0.00000   7.00005   7.00005
 -6.26263   0.00000   0.00000   7.00005   7.00005
 -6.06061   0.00000   0.00000   7.00005   7.00005
 -5.85859   0.00000   0.00000   7.00005   7.00005
 -5.65657   0.00000   0.00000   7.00005   7.00005
 -5.45455   0.00000   0.00000   7.00005   7.00005
 -5.25253   0.00000   0.00000   7.00005   7.00005
 -5.05051   0.00000   0.00000   7.00005   7.00005
 -4.84848   0.16057   0.16057   7.03249   7.03249
 -4.64646   0.44402   0.44402   7.12219   7.12219
 -4.44444   0.65289   0.65290   7.25409   7.25409
 -4.24242   1.02729   1.02733   7.46162   7.46163
 -4.04040   0.67040   0.67040   7.59705   7.59706
 -3.83838   0.73374   0.73374   7.74528   7.74529
 -3.63636   1.84076   1.84080   8.11716   8.11717
 -3.43434   2.12335   2.12334   8.54611   8.54613
 -3.23232   2.25065   2.25064   9.00079   9.00080
 -3.03030   2.38723   2.38734   9.48306   9.48309
 -2.82828   2.68429   2.68426  10.02534  10.02537
 -2.62626   3.77905   3.77902  10.78878  10.78881
 -2.42424   3.24184   3.24177  11.44370  11.44371
 -2.22222   2.49746   2.49750  11.94824  11.94826
 -2.02020   1.59576   1.59571  12.27061  12.27062
 -1.81818   2.15599   2.15615  12.70617  12.70621
 -1.61616   2.12531   2.12517  13.13552  13.13553
 -1.41414   1.68848   1.68846  13.47663  13.47664
 -1.21212   1.84940   1.84941  13.85024  13.85026
 -1.01010   2.50568   2.50578  14.35644  14.35648
 -0.80808   3.72655   3.72647  15.10928  15.10930
 -0.60606   2.47634   2.47632  15.60955  15.60956
 -0.40404   1.38753   1.38750  15.88986  15.88987
 -0.20202   0.41128   0.41129  15.97295  15.97295
  0.00000   0.13445   0.13444  16.00011  16.00011
  0.20202   0.00000   0.00000  16.00011  16.00011
  0.40404   0.00000   0.00000  16.00011  16.00011
  0.60606   0.00000   0.00000  16.00011  16.00011
  0.80808   0.00000   0.00000  16.00011  16.00011
  1.01010   0.00000   0.00000  16.00011  16.00011
  1.21212   0.00000   0.00000  16.00011  16.00011
  1.41414   0.00000   0.00000  16.00011  16.00011
  1.61616   0.00000   0.00000  16.00011  16.00011
  1.81818   5.01915   5.02132  17.01408  17.01452
  2.02020   2.81275   2.81224  17.58231  17.58265
  2.22222   3.10984   3.10985  18.21056  18.21090
  2.42424   3.08269   3.08267  18.83333  18.83367
  2.62626   3.06471   3.06479  19.45246  19.45282
  2.82828   2.31986   2.31973  19.92112  19.92145
  3.03030   2.42557   2.42547  20.41114  20.41144
  3.23232   3.16730   3.16738  21.05099  21.05132
  3.43434   1.46347   1.46333  21.34664  21.34694
  3.63636   1.06266   1.06263  21.56132  21.56161
  3.83838   0.80609   0.80610  21.72417  21.72446
  4.04040   0.87009   0.87012  21.89994  21.90024
  4.24242   0.85827   0.85823  22.07333  22.07362
  4.44444   0.71548   0.71546  22.21787  22.21816
  4.64646   0.74006   0.74005  22.36738  22.36766
  4.84848   1.31891   1.31893  22.63383  22.63412
  5.05051   1.39823   1.39821  22.91630  22.91658
      5.05050505     -15.15151515   101       1.65796458       1.00000000; Z= 92; 6s 7s 6p_y 6p_z 6p_x 6d_xy 6d_yz 6d_z^2 6d_xz 6d_x^2-y^2 5f_y(3x^2-y^2) 5f_xyz 5f_yz^2 5f_z^3 5f_xz^2 5f_z(x^2-y^2) 5f_x(x^2-3y^2) 
-15.15152   0.00000   0.00000   0.00000   0.00000   0.00000   0.00000   0.00000   0.00000   0.00000   0.00000   0.00000   0.00000   0.00000   0.00000   0.00000   0.00000   0.00000   0.00000   0.00000   0.00000   0.00000   0.00000   0.00000   0.00000   0.00000   0.00000   0.00000   0.00000   0.00000   0.00000   0.00000   0.00000   0.00000   0.00000
-14.94949   0.00343   0.00343   0.02079   0.02079   0.05537   0.05537   0.05552   0.05551   0.05552   0.05552   0.00001   0.00001   0.00001   0.00001   0.02448   0.02449   0.00001   0.00001   0.02457   0.02456   0.00033   0.00033   0.00000   0.00000   0.00020   0.00020   0.00054   0.00054   0.00020   0.00020   0.00000   0.00000   0.00034   0.00034
-14.74747   0.00239   0.00239   0.01480   0.01480   0.04560   0.04560   0.04600   0.04597   0.04597   0.04599   0.00000   0.00000   0.00000   0.00000   0.01934   0.01933   0.00000   0.00000   0.01927   0.01927   0.00033   0.00033   0.00000   0.00000   0.00020   0.00020   0.00054   0.00054   0.00020   0.00020   0.00000   0.00000   0.00034   0.00034
-14.54545   0.00238   0.00238   0.01484   0.01484   0.04636   0.04636   0.04663   0.04661   0.04661   0.04662   0.00000   0.00000   0.00000   0.00000   0.01863   0.01863   0.00000   0.00000   0.01860   0.01860   0.00037   0.00037   0.00000   0.00000   0.00022   0.00022   0.00060   0.00060   0.00023   0.00023   0.00000   0.00000   0.00038   0.00038
-14.34343   0.00237   0.00237   0.01487   0.01487   0.04719   0.04719   0.04731   0.04731   0.04731   0.04731   0.00000   0.00000   0.00000   0.00000   0.01796   0.01796   0.00000   0.00000   0.01796   0.01796   0.00041   0.00041   0.00000   0.00000   0.00025   0.00025   0.00066   0.00066   0.00025   0.00025   0.00000   0.00000   0.00041   0.00041
-14.14141   0.00235   0.00235   0.01489   0.01489   0.04808   0.04808   0.04806   0.04807   0.04807   0.04806   0.00000   0.00000   0.00000   0.00000   0.01732   0.01732   0.00000   0.00000   0.01735   0.01735   0.00045   0.00045   0.00000   0.00000   0.00027   0.00027   0.00072   0.00072   0.00027   0.00027   0.00000   0.00000   0.00045   0.00045
-13.93939   0.00245   0.00245   0.01575   0.01575   0.05700   0.05700   0.05650   0.05653   0.05654   0.05650   0.00001   0.00001   0.00001   0.00001   0.01965   0.01967   0.00001   0.00001   0.01985   0.01984   0.00059   0.00059   0.00000   0.00000   0.00035   0.00035   0.00093   0.00093   0.00035   0.00035   0.00000   0.00000   0.00058   0.00058
-13.73737   0.00254   0.00254   0.01744   0.01744   0.07138   0.07139   0.07132   0.07132   0.07134   0.07133   0.00001   0.00001   0.00001   0.00001   0.01927   0.01930   0.00001   0.00001   0.01949   0.01947   0.00100   0.00100   0.00000   0.00000   0.00060   0.00060   0.00161   0.00161   0.00060   0.00061   0.00000   0.00000   0.00101   0.00101
-13.53535   0.00171   0.00171   0.01232   0.01232   0.05685   0.05686   0.05731   0.05728   0.05729   0.05731   0.00001   0.00001   0.00001   0.00001   0.01392   0.01392   0.00001   0.00001   0.01394   0.01393   0.00093   0.00093   0.00000   0.00000   0.00056   0.00056   0.00151   0.00151   0.00057   0.00057   0.00000   0.00000   0.00094   0.00094
-13.33333   0.00165   0.00165   0.01214   0.01214   0.05781   0.05782   0.05810   0.05809   0.05809   0.05810   0.00001   0.00001   0.00001   0.00001   0.01309   0.01310   0.00001   0.00001   0.01312   0.01312   0.00101   0.00101   0.00000   0.00000   0.00061   0.00061   0.00163   0.00163   0.00061   0.00061   0.00000   0.00000   0.00102   0.00102
-13.13131   0.00158   0.00158   0.01195   0.01195   0.05887   0.05887   0.05899   0.05898   0.05898   0.05898   0.00001   0.00001   0.00001   0.00001   0.01230   0.01231   0.00001   0.00001   0.01235   0.01234   0.00109   0.00109   0.00000   0.00000   0.00066   0.00066   0.00176   0.00176   0.00066   0.00066   0.00000   0.00000   0.00110   0.00110
-12.92929   0.00149   0.00149   0.01172   0.01172   0.06002   0.06002   0.05996   0.05997   0.05996   0.05996   0.00001   0.00001   0.00001   0.00001   0.01156   0.01156   0.00001   0.00001   0.01161   0.01161   0.00118   0.00118   0.00000   0.00000   0.00071   0.00071   0.00189   0.00189   0.00071   0.00071   0.00000   0.00000   0.00118   0.00118
-12.72727   0.00158   0.00158   0.01503   0.01503   0.10221   0.10222   0.10134   0.10138   0.10139   0.10134   0.00001   0.00001   0.00001   0.00001   0.01538   0.01541   0.00001   0.00001   0.01571   0.01568   0.00239   0.00239   0.00000   0.00000   0.00144   0.00144   0.00381   0.00381   0.00143   0.00143   0.00000   0.00000   0.00238   0.00238
-12.52525   0.00098   0.00098   0.01062   0.01062   0.09558   0.09561   0.09632   0.09628   0.09632   0.09633   0.00001   0.00001   0.00001   0.00001   0.00980   0.00982   0.00001   0.00001   0.00995   0.00993   0.00265   0.00265   0.00000   0.00000   0.00159   0.00159   0.00429   0.00428   0.00161   0.00161   0.00000   0.00000   0.00268   0.00268
-12.32323   0.00083   0.00083   0.00945   0.00945   0.09791   0.09793   0.09826   0.09824   0.09826   0.09826   0.00001   0.00001   0.00001   0.00001   0.00812   0.00813   0.00001   0.00001   0.00824   0.00822   0.00288   0.00288   0.00000   0.00000   0.00173   0.00173   0.00463   0.00463   0.00174   0.00174   0.00000   0.00000   0.00290   0.00290
-12.12121   0.00069   0.00069   0.00878   0.00878   0.12246   0.12246   0.12238   0.12239   0.12239   0.12238   0.00001   0.00001   0.00001   0.00001   0.00726   0.00727   0.00001   0.00001   0.00734   0.00733   0.00392   0.00392   0.00000   0.00000   0.00235   0.00235   0.00627   0.00627   0.00235   0.00235   0.00000   0.00000   0.00392   0.00392
-11.91919   0.00021   0.00021   0.00839   0.00839   0.20366   0.20358   0.20037   0.20058   0.20049   0.20035   0.00001   0.00001   0.00001   0.00001   0.00650   0.00652   0.00001   0.00001   0.00668   0.00666   0.00694   0.00693   0.00000   0.00000   0.00416   0.00416   0.01093   0.01094   0.00410   0.00410   0.00000   0.00000   0.00683   0.00683
-11.71717   0.00000   0.00000   0.00000   0.00000   0.00000   0.00000   0.00000   0.00000   0.00000   0.00000   0.00000   0.00000   0.00000   0.00000   0.00000   0.00000   0.00000   0.00000   0.00000   0.00000   0.00000   0.00000   0.00000   0.00000   0.00000   0.00000   0.00000   0.00000   0.00000   0.00000   0.00000   0.00000   0.00000   0.00000
-11.51515   0.00000   0.00000   0.00000   0.00000   0.00000   0.00000   0.00000   0.00000   0.00000   0.00000   0.00000   0.00000   0.00000   0.00000   0.00000   0.00000   0.00000   0.00000   0.00000   0.00000   0.00000   0.00000   0.00000   0.00000   0.00000   0.00000   0.00000   0.00000   0.00000   0.00000   0.00000   0.00000   0.00000   0.00000
-11.31313   0.00000   0.00000   0.00000   0.00000   0.00000   0.00000   0.00000   0.00000   0.00000   0.00000   0.00000   0.00000   0.00000   0.00000   0.00000   0.00000   0.00000   0.00000   0.00000   0.00000   0.00000   0.00000   0.00000   0.00000   0.00000   0.00000   0.00000   0.00000   0.00000   0.00000   0.00000   0.00000   0.00000   0.00000
-11.11111   0.00000   0.00000   0.00000   0.00000   0.00000   0.00000   0.00000   0.00000   0.00000   0.00000   0.00000   0.00000   0.00000   0.00000   0.00000   0.00000   0.00000   0.00000   0.00000   0.00000   0.00000   0.00000   0.00000   0.00000   0.00000   0.00000   0.00000   0.00000   0.00000   0.00000   0.00000   0.00000   0.00000   0.00000
-10.90909   0.00000   0.00000   0.00000   0.00000   0.00000   0.00000   0.00000   0.00000   0.00000   0.00000   0.00000   0.00000   0.00000   0.00000   0.00000   0.00000   0.00000   0.00000   0.00000   0.00000   0.00000   0.00000   0.00000   0.00000   0.00000   0.00000   0.00000   0.00000   0.00000   0.00000   0.00000   0.00000   0.00000   0.00000
-10.70707   0.00000   0.00000   0.00000   0.00000   0.00000   0.00000   0.00000   0.00000   0.00000   0.00000   0.00000   0.00000   0.00000   0.00000   0.00000   0.00000   0.00000   0.00000   0.00000   0.00000   0.00000   0.00000   0.00000   0.00000   0.00000   0.00000   0.00000   0.00000   0.00000   0.00000   0.00000   0.00000   0.00000   0.00000
-10.50505   0.00000   0.00000   0.00000   0.00000   0.00000   0.00000   0.00000   0.00000   0.00000   0.00000   0.00000   0.00000   0.00000   0.00000   0.00000   0.00000   0.00000   0.00000   0.00000   0.00000   0.00000   0.00000   0.00000   0.00000   0.00000   0.00000   0.00000   0.00000   0.00000   0.00000   0.00000   0.00000   0.00000   0.00000
-10.30303   0.00000   0.00000   0.00000   0.00000   0.00000   0.00000   0.00000   0.00000   0.00000   0.00000   0.00000   0.00000   0.00000   0.00000   0.00000   0.00000   0.00000   0.00000   0.00000   0.00000   0.00000   0.00000   0.00000   0.00000   0.00000   0.00000   0.00000   0.00000   0.00000   0.00000   0.00000   0.00000   0.00000   0.00000
-10.10101   0.00000   0.00000   0.00000   0.00000   0.00000   0.00000   0.00000   0.00000   0.00000   0.00000   0.00000   0.00000   0.00000   0.00000   0.00000   0.00000   0.00000   0.00000   0.00000   0.00000   0.00000   0.00000   0.00000   0.00000   0.00000   0.00000   0.00000   0.00000   0.00000   0.00000   0.00000   0.00000   0.00000   0.00000
 -9.89899   0.00000   0.00000   0.00000   0.00000   0.00000   0.00000   0.00000   0.00000   0.00000   0.00000   0.00000   0.00000   0.00000   0.00000   0.00000   0.00000   0.00000   0.00000   0.00000   0.00000   0.00000   0.00000   0.00000   0.00000   0.00000   0.00000   0.00000   0.00000   0.00000   0.00000   0.00000   0.00000   0.00000   0.00000
 -9.69697   0.00000   0.00000   0.00000   0.00000   0.00000   0.00000   0.00000   0.00000   0.00000   0.00000   0.00000   0.00000   0.00000   0.00000   0.00000   0.00000   0.00000   0.00000   0.00000   0.00000   0.00000   0.00000   0.00000   0.00000   0.00000   0.00000   0.00000   0.00000   0.00000   0.00000   0.00000   0.00000   0.00000   0.00000
 -9.49495   0.00000   0.00000   0.00000   0.00000   0.00000   0.00000   0.00000   0.00000   0.00000   0.00000   0.00000   0.00000   0.00000   0.00000   0.00000   0.00000   0.00000   0.00000   0.00000   0.00000   0.00000   0.00000   0.00000   0.00000   0.00000   0.00000   0.00000   0.00000   0.00000   0.00000   0.00000   0.00000   0.00000   0.00000
 -9.29293   0.00000   0.00000   0.00000   0.00000   0.00000   0.00000   0.00000   0.00000   0.00000   0.00000   0.00000   0.00000   0.00000   0.00000   0.00000   0.00000   0.00000   0.00000   0.00000   0.00000   0.00000   0.00000   0.00000   0.00000   0.00000   0.00000   0.00000   0.00000   0.00000   0.00000   0.00000   0.00000   0.00000   0.00000
 -9.09091   0.00000   0.00000   0.00000   0.00000   0.00000   0.00000   0.00000   0.00000   0.00000   0.00000   0.00000   0.00000   0.00000   0.00000   0.00000   0.00000   0.00000   0.00000   0.00000   0.00000   0.00000   0.00000   0.00000   0.00000   0.00000   0.00000   0.00000   0.00000   0.00000   0.00000   0.00000   0.00000   0.00000   0.00000
 -8.88889   0.00000   0.00000   0.00000   0.00000   0.00000   0.00000   0.00000   0.00000   0.00000   0.00000   0.00000   0.00000   0.00000   0.00000   0.00000   0.00000   0.00000   0.00000   0.00000   0.00000   0.00000   0.00000   0.00000   0.00000   0.00000   0.00000   0.00000   0.00000   0.00000   0.00000   0.00000   0.00000   0.00000   0.00000
 -8.68687   0.00000   0.00000   0.00000   0.00000   0.00000   0.00000   0.00000   0.00000   0.00000   0.00000   0.00000   0.00000   0.00000   0.00000   0.00000   0.00000   0.00000   0.00000   0.00000   0.00000   0.00000   0.00000   0.00000   0.00000   0.00000   0.00000   0.00000   0.00000   0.00000   0.00000   0.00000   0.00000   0.00000   0.00000
 -8.48485   0.00000   0.00000   0.00000   0.00000   0.00000   0.00000   0.00000   0.00000   0.00000   0.00000   0.00000   0.00000   0.00000   0.00000   0.00000   0.00000   0.00000   0.00000   0.00000   0.00000   0.00000   0.00000   0.00000   0.00000   0.00000   0.00000   0.00000   0.00000   0.00000   0.00000   0.00000   0.00000   0.00000   0.00000
 -8.28283   0.00000   0.00000   0.00000   0.00000   0.00000   0.00000   0.00000   0.00000   0.00000   0.00000   0.00000   0.00000   0.00000   0.00000   0.00000   0.00000   0.00000   0.00000   0.00000   0.00000   0.00000   0.00000   0.00000   0.00000   0.00000   0.00000   0.00000   0.00000   0.00000   0.00000   0.00000   0.00000   0.00000   0.00000
 -8.08081   0.00000   0.00000   0.00000   0.00000   0.00000   0.00000   0.00000   0.00000   0.00000   0.00000   0.00000   0.00000   0.00000   0.00000   0.00000   0.00000   0.00000   0.00000   0.00000   0.00000   0.00000   0.00000   0.00000   0.00000   0.00000   0.00000   0.00000   0.00000   0.00000   0.00000   0.00000   0.00000   0.00000   0.00000
 -7.87879   0.00000   0.00000   0.00000   0.00000   0.00000   0.00000   0.00000   0.00000   0.00000   0.00000   0.00000   0.00000   0.00000   0.00000   0.00000   0.00000   0.00000   0.00000   0.00000   0.00000   0.00000   0.00000   0.00000   0.00000   0.00000   0.00000   0.00000   0.00000   0.00000   0.00000   0.00000   0.00000   0.00000   0.00000
 -7.67677   0.00000   0.00000   0.00000   0.00000   0.00000   0.00000   0.00000   0.00000   0.00000   0.00000   0.00000   0.00000   0.00000   0.00000   0.00000   0.00000   0.00000   0.00000   0.00000   0.00000   0.00000   0.00000   0.00000   0.00000   0.00000   0.00000   0.00000   0.00000   0.00000   0.00000   0.00000   0.00000   0.00000   0.00000
 -7.47475   0.00000   0.00000   0.00000   0.00000   0.00000   0.00000   0.00000   0.00000   0.00000   0.00000   0.00000   0.00000   0.00000   0.00000   0.00000   0.00000   0.00000   0.00000   0.00000   0.00000   0.00000   0.00000   0.00000   0.00000   0.00000   0.00000   0.00000   0.00000   0.00000   0.00000   0.00000   0.00000   0.00000   0.00000
 -7.27273   0.00000   0.00000   0.00000   0.00000   0.00000   0.00000   0.00000   0.00000   0.00000   0.00000   0.00000   0.00000   0.00000   0.00000   0.00000   0.00000   0.00000   0.00000   0.00000   0.00000   0.00000   0.00000   0.00000   0.00000   0.00000   0.00000   0.00000   0.00000   0.00000   0.00000   0.00000   0.00000   0.00000   0.00000
 -7.07071   0.00000   0.00000   0.00000   0.00000   0.00000   0.00000   0.00000   0.00000   0.00000   0.00000   0.00000   0.00000   0.00000   0.00000   0.00000   0.00000   0.00000   0.00000   0.00000   0.00000   0.00000   0.00000   0.00000   0.00000   0.00000   0.00000   0.00000   0.00000   0.00000   0.00000   0.00000   0.00000   0.00000   0.00000
 -6.86869   0.00000   0.00000   0.00000   0.00000   0.00000   0.00000   0.00000   0.00000   0.00000   0.00000   0.00000   0.00000   0.00000   0.00000   0.00000   0.00000   0.00000   0.00000   0.00000   0.00000   0.00000   0.00000   0.00000   0.00000   0.00000   0.00000   0.00000   0.00000   0.00000   0.00000   0.00000   0.00000   0.00000   0.00000
 -6.66667   0.00000   0.00000   0.00000   0.00000   0.00000   0.00000   0.00000   0.00000   0.00000   0.00000   0.00000   0.00000   0.00000   0.00000   0.00000   0.00000   0.00000   0.00000   0.00000   0.00000   0.00000   0.00000   0.00000   0.00000   0.00000   0.00000   0.00000   0.00000   0.00000   0.00000   0.00000   0.00000   0.00000   0.00000
 -6.46465   0.00000   0.00000   0.00000   0.00000   0.00000   0.00000   0.00000   0.00000   0.00000   0.00000   0.00000   0.00000   0.00000   0.00000   0.00000   0.00000   0.00000   0.00000   0.00000   0.00000   0.00000   0.00000   0.00000   0.00000   0.00000   0.00000   0.00000   0.00000   0.00000   0.00000   0.00000   0.00000   0.00000   0.00000
 -6.26263   0.00000   0.00000   0.00000   0.00000   0.00000   0.00000   0.00000   0.00000   0.00000   0.00000   0.00000   0.00000   0.00000   0.00000   0.00000   0.00000   0.00000   0.00000   0.00000   0.00000   0.00000   0.00000   0.00000   0.00000   0.00000   0.00000   0.00000   0.00000   0.00000   0.00000   0.00000   0.00000   0.00000   0.00000
 -6.06061   0.00000   0.00000   0.00000   0.00000   0.00000   0.00000   0.00000   0.00000   0.00000   0.00000   0.00000   0.00000   0.00000   0.00000   0.00000   0.00000   0.00000   0.00000   0.00000   0.00000   0.00000   0.00000   0.00000   0.00000   0.00000   0.00000   0.00000   0.00000   0.00000   0.00000   0.00000   0.00000   0.00000   0.00000
 -5.85859   0.00000   0.00000   0.00000   0.00000   0.00000   0.00000   0.00000   0.00000   0.00000   0.00000   0.00000   0.00000   0.00000   0.00000   0.00000   0.00000   0.00000   0.00000   0.00000   0.00000   0.00000   0.00000   0.00000   0.00000   0.00000   0.00000   0.00000   0.00000   0.00000   0.00000   0.00000   0.00000   0.00000   0.00000
 -5.65657   0.00000   0.00000   0.00000   0.00000   0.00000   0.00000   0.00000   0.00000   0.00000   0.00000   0.00000   0.00000   0.00000   0.00000   0.00000   0.00000   0.00000   0.00000   0.00000   0.00000   0.00000   0.00000   0.00000   0.00000   0.00000   0.00000   0.00000   0.00000   0.00000   0.00000   0.00000   0.00000   0.00000   0.00000
 -5.45455   0.00000   0.00000   0.00000   0.00000   0.00000   0.00000   0.00000   0.00000   0.00000   0.00000   0.00000   0.00000   0.00000   0.00000   0.00000   0.00000   0.00000   0.00000   0.00000   0.00000   0.00000   0.00000   0.00000   0.00000   0.00000   0.00000   0.00000   0.00000   0.00000   0.00000   0.00000   0.00000   0.00000   0.00000
 -5.25253   0.00000   0.00000   0.00000   0.00000   0.00000   0.00000   0.00000   0.00000   0.00000   0.00000   0.00000   0.00000   0.00000   0.00000   0.00000   0.00000   0.00000   0.00000   0.00000   0.00000   0.00000   0.00000   0.00000   0.00000   0.00000   0.00000   0.00000   0.00000   0.00000   0.00000   0.00000   0.00000   0.00000   0.00000
 -5.05051   0.00000   0.00000   0.00000   0.00000   0.00000   0.00000   0.00000   0.00000   0.00000   0.00000   0.00000   0.00000   0.00000   0.00000   0.00000   0.00000   0.00000   0.00000   0.00000   0.00000   0.00000   0.00000   0.00000   0.00000   0.00000   0.00000   0.00000   0.00000   0.00000   0.00000   0.00000   0.00000   0.00000   0.00000
 -4.84848   0.00001   0.00001   0.00009   0.00009   0.00030   0.00030   0.00035   0.00034   0.00034   0.00035   0.00001   0.00001   0.00001   0.00001   0.02104   0.02062   0.00001   0.00001   0.01864   0.01907   0.00022   0.00022   0.00000   0.00000   0.00013   0.00013   0.00040   0.00040   0.00015   0.00015   0.00000   0.00000   0.00025   0.00025
 -4.64646   0.00034   0.00034   0.00238   0.00238   0.00151   0.00151   0.00157   0.00156   0.00157   0.00158   0.00007   0.00006   0.00007   0.00007   0.05144   0.05136   0.00006   0.00006   0.05099   0.05108   0.00125   0.00125   0.00000   0.00000   0.00076   0.00076   0.00208   0.00207   0.00079   0.00079   0.00002   0.00002   0.00131   0.00132
 -4.44444   0.00174   0.00174   0.00978   0.00978   0.00311   0.00311   0.00324   0.00322   0.00323   0.00325   0.00023   0.00022   0.00023   0.00023   0.06724   0.06731   0.00020   0.00020   0.06780   0.06773   0.00299   0.00299   0.00000   0.00000   0.00181   0.00182   0.00497   0.00494   0.00188   0.00189   0.00005   0.00005   0.00313   0.00314
 -4.24242   0.00734   0.00734   0.03365   0.03365   0.00457   0.00457   0.00469   0.00467   0.00468   0.00470   0.00069   0.00068   0.00069   0.00069   0.09212   0.09212   0.00066   0.00066   0.09235   0.09236   0.00576   0.00576   0.00000   0.00000   0.00349   0.00349   0.00936   0.00933   0.00355   0.00356   0.00008   0.00008   0.00588   0.00590
 -4.04040   0.00397   0.00397   0.01757   0.01757   0.00454   0.00454   0.00453   0.00453   0.00453   0.00453   0.00167   0.00167   0.00168   0.00168   0.05343   0.05344   0.00170   0.00170   0.05361   0.05359   0.00678   0.00678   0.00000   0.00000   0.00411   0.00411   0.01074   0.01074   0.00411   0.00411   0.00011   0.00011   0.00675   0.00675
 -3.83838   0.00387   0.00387   0.01687   0.01687   0.00487   0.00487   0.00464   0.00466   0.00467   0.00465   0.01384   0.01385   0.01391   0.01391   0.04258   0.04273   0.01413   0.01413   0.04365   0.04350   0.00861   0.00862   0.00000   0.00000   0.00529   0.00529   0.01304   0.01308   0.00518   0.00516   0.00027   0.00027   0.00824   0.00822
 -3.63636   0.00652   0.00652   0.03087   0.03087   0.00606   0.00605   0.00580   0.00582   0.00583   0.00581   0.10954   0.10954   0.10967   0.10967   0.03927   0.03941   0.11059   0.11059   0.04037   0.04024   0.01453   0.01453   0.00001   0.00001   0.00945   0.00945   0.02149   0.02152   0.00934   0.00933   0.00180   0.00180   0.01409   0.01407
 -3.43434   0.00829   0.00829   0.03903   0.03902   0.00739   0.00739   0.00732   0.00733   0.00732   0.00732   0.11612   0.11612   0.11613   0.11614   0.03938   0.03943   0.11628   0.11628   0.03965   0.03961   0.02145   0.02145   0.00001   0.00001   0.01488   0.01488   0.03118   0.03119   0.01487   0.01487   0.00506   0.00506   0.02138   0.02137
 -3.23232   0.00737   0.00737   0.03577   0.03577   0.00819   0.00819   0.00834   0.00834   0.00830   0.00831   0.10923   0.10923   0.10907   0.10909   0.03116   0.03115   0.10823   0.10820   0.03057   0.03057   0.03494   0.03494   0.00001   0.00001   0.02466   0.02465   0.05091   0.05091   0.02470   0.02470   0.00927   0.00928   0.03532   0.03532
 -3.03030   0.00649   0.00649   0.03262   0.03262   0.00903   0.00903   0.00902   0.00902   0.00902   0.00902   0.10504   0.10504   0.10502   0.10501   0.02284   0.02284   0.10483   0.10485   0.02274   0.02274   0.04674   0.04676   0.00001   0.00001   0.03392   0.03391   0.06571   0.06574   0.03388   0.03386   0.01465   0.01465   0.04656   0.04655
 -2.82828   0.00651   0.00651   0.03476   0.03476   0.01249   0.01250   0.01243   0.01243   0.01245   0.01244   0.08643   0.08643   0.08647   0.08643   0.02148   0.02147   0.08658   0.08661   0.02153   0.02153   0.07294   0.07298   0.00001   0.00001   0.05217   0.05217   0.10344   0.10351   0.05209   0.05204   0.02096   0.02096   0.07260   0.07254
 -2.62626   0.00601   0.00601   0.02785   0.02785   0.01799   0.01798   0.01787   0.01788   0.01795   0.01795   0.09570   0.09565   0.09536   0.09544   0.01739   0.01737   0.09482   0.09478   0.01709   0.01711   0.13175   0.13171   0.00001   0.00001   0.09141   0.09143   0.18870   0.18891   0.09114   0.09094   0.03048   0.03053   0.13012   0.13007
 -2.42424   0.00509   0.00509   0.01740   0.01739   0.01737   0.01737   0.01770   0.01768   0.01758   0.01760   0.08588   0.08560   0.08594   0.08621   0.01156   0.01156   0.08703   0.08704   0.01150   0.01150   0.09710   0.09711   0.00001   0.00001   0.07557   0.07553   0.13463   0.13428   0.07609   0.07630   0.04332   0.04333   0.09935   0.09949
 -2.22222   0.00434   0.00434   0.01373   0.01373   0.00941   0.00942   0.00936   0.00936   0.00937   0.00936   0.07239   0.07201   0.07184   0.07279   0.00354   0.00355   0.07191   0.07134   0.00357   0.00357   0.05581   0.05615   0.00000   0.00000   0.05848   0.05860   0.05179   0.05184   0.05834   0.05765   0.06144   0.06205   0.05576   0.05531
 -2.02020   0.00460   0.00460   0.01163   0.01163   0.00710   0.00709   0.00706   0.00706   0.00707   0.00707   0.01839   0.01872   0.01870   0.01802   0.00114   0.00114   0.01792   0.01827   0.00114   0.00114   0.03905   0.03884   0.00000   0.00000   0.05059   0.05060   0.02140   0.02139   0.05029   0.05024   0.06765   0.06789   0.03894   0.03896
 -1.81818   0.00677   0.00677   0.01228   0.01229   0.01482   0.01482   0.01481   0.01481   0.01482   0.01482   0.01115   0.01151   0.01158   0.01099   0.00190   0.00190   0.01142   0.01164   0.00189   0.00189   0.05767   0.05752   0.00000   0.00000   0.06781   0.06771   0.04238   0.04237   0.06815   0.06894   0.08477   0.08387   0.05792   0.05833
 -1.61616   0.00826   0.00826   0.01001   0.01001   0.01927   0.01927   0.01924   0.01924   0.01925   0.01925   0.01531   0.01531   0.01531   0.01531   0.00208   0.00208   0.01531   0.01531   0.00204   0.00204   0.05385   0.05385   0.00000   0.00000   0.05884   0.05884   0.04640   0.04639   0.05885   0.05884   0.06632   0.06632   0.05386   0.05385
 -1.41414   0.00530   0.00530   0.00314   0.00314   0.01788   0.01788   0.01786   0.01786   0.01787   0.01787   0.00900   0.00900   0.00900   0.00900   0.00242   0.00242   0.00900   0.00900   0.00240   0.00240   0.03865   0.03865   0.00000   0.00000   0.04110   0.04110   0.03500   0.03500   0.04110   0.04110   0.04476   0.04476   0.03866   0.03866