  COHP#       atomMU       atomNU     distance     translation      ICOHP (at) eF   for spin  1
      1           U1           U1      5.84836       0  -1  -1           -0.00339 
      1        U1_6s        U1_6s      5.84836       0  -1  -1           -0.00012 
      1        U1_7s        U1_6s      5.84836       0  -1  -1           -0.00002 
      1      U1_6p_y        U1_6s      5.84836       0  -1  -1           -0.00001 
      1      U1_6p_z        U1_6s      5.84836       0  -1  -1           -0.00001 
      1      U1_6p_x        U1_6s      5.84836       0  -1  -1           -0.00000 
      1     U1_6d_xy        U1_6s      5.84836       0  -1  -1           -0.00000 
      1     U1_6d_yz        U1_6s      5.84836       0  -1  -1           -0.00020 
      1    U1_6d_z^2        U1_6s      5.84836       0  -1  -1           -0.00001 
      1     U1_6d_xz        U1_6s      5.84836       0  -1  -1           -0.00000 
      1 U1_6d_x^2-y^2        U1_6s      5.84836       0  -1  -1           -0.00002 
      1 U1_5f_y(3x^2-y^2)        U1_6s      5.84836       0  -1  -1           -0.00000 
      1    U1_5f_xyz        U1_6s      5.84836       0  -1  -1           -0.00000 
      1   U1_5f_yz^2        U1_6s      5.84836       0  -1  -1            0.00001 
      1    U1_5f_z^3        U1_6s      5.84836       0  -1  -1            0.00000 
      1   U1_5f_xz^2        U1_6s      5.84836       0  -1  -1           -0.00000 
      1 U1_5f_z(x^2-y^2)        U1_6s      5.84836       0  -1  -1            0.00000 
      1 U1_5f_x(x^2-3y^2)        U1_6s      5.84836       0  -1  -1           -0.00000 
      1        U1_6s        U1_7s      5.84836       0  -1  -1           -0.00002 
      1        U1_7s        U1_7s      5.84836       0  -1  -1           -0.00044 
      1      U1_6p_y        U1_7s      5.84836       0  -1  -1           -0.00004 
      1      U1_6p_z        U1_7s      5.84836       0  -1  -1           -0.00004 
      1      U1_6p_x        U1_7s      5.84836       0  -1  -1            0.00000 
      1     U1_6d_xy        U1_7s      5.84836       0  -1  -1            0.00000 
      1     U1_6d_yz        U1_7s      5.84836       0  -1  -1           -0.00027 
      1    U1_6d_z^2        U1_7s      5.84836       0  -1  -1           -0.00002 
      1     U1_6d_xz        U1_7s      5.84836       0  -1  -1            0.00000 
      1 U1_6d_x^2-y^2        U1_7s      5.84836       0  -1  -1           -0.00006 
      1 U1_5f_y(3x^2-y^2)        U1_7s      5.84836       0  -1  -1           -0.00001 
      1    U1_5f_xyz        U1_7s      5.84836       0  -1  -1            0.00000 
      1   U1_5f_yz^2        U1_7s      5.84836       0  -1  -1            0.00001 
      1    U1_5f_z^3        U1_7s      5.84836       0  -1  -1            0.00000 
      1   U1_5f_xz^2        U1_7s      5.84836       0  -1  -1            0.00000 
      1 U1_5f_z(x^2-y^2)        U1_7s      5.84836       0  -1  -1            0.00000 
      1 U1_5f_x(x^2-3y^2)        U1_7s      5.84836       0  -1  -1            0.00000 
      1        U1_6s      U1_6p_y      5.84836       0  -1  -1           -0.00001 
      1        U1_7s      U1_6p_y      5.84836       0  -1  -1           -0.00004 
      1      U1_6p_y      U1_6p_y      5.84836       0  -1  -1           -0.00000 
      1      U1_6p_z      U1_6p_y      5.84836       0  -1  -1           -0.00001 
      1      U1_6p_x      U1_6p_y      5.84836       0  -1  -1           -0.00000 
      1     U1_6d_xy      U1_6p_y      5.84836       0  -1  -1            0.00000 
      1     U1_6d_yz      U1_6p_y      5.84836       0  -1  -1           -0.00005 
      1    U1_6d_z^2      U1_6p_y      5.84836       0  -1  -1            0.00000 
      1     U1_6d_xz      U1_6p_y      5.84836       0  -1  -1            0.00000 
      1 U1_6d_x^2-y^2      U1_6p_y      5.84836       0  -1  -1           -0.00011 
      1 U1_5f_y(3x^2-y^2)      U1_6p_y      5.84836       0  -1  -1            0.00000 
      1    U1_5f_xyz      U1_6p_y      5.84836       0  -1  -1            0.00000 
      1   U1_5f_yz^2      U1_6p_y      5.84836       0  -1  -1            0.00000 
      1    U1_5f_z^3      U1_6p_y      5.84836       0  -1  -1           -0.00001 
      1   U1_5f_xz^2      U1_6p_y      5.84836       0  -1  -1            0.00000 
      1 U1_5f_z(x^2-y^2)      U1_6p_y      5.84836       0  -1  -1            0.00000 
      1 U1_5f_x(x^2-3y^2)      U1_6p_y      5.84836       0  -1  -1            0.00000 
      1        U1_6s      U1_6p_z      5.84836       0  -1  -1           -0.00001 
      1        U1_7s      U1_6p_z      5.84836       0  -1  -1           -0.00004 
      1      U1_6p_y      U1_6p_z      5.84836       0  -1  -1           -0.00001 
      1      U1_6p_z      U1_6p_z      5.84836       0  -1  -1           -0.00000 
      1      U1_6p_x      U1_6p_z      5.84836       0  -1  -1            0.00000 
      1     U1_6d_xy      U1_6p_z      5.84836       0  -1  -1            0.00000 
      1     U1_6d_yz      U1_6p_z      5.84836       0  -1  -1           -0.00005 
      1    U1_6d_z^2      U1_6p_z      5.84836       0  -1  -1           -0.00011 
      1     U1_6d_xz      U1_6p_z      5.84836       0  -1  -1            0.00000 
      1 U1_6d_x^2-y^2      U1_6p_z      5.84836       0  -1  -1           -0.00003 
      1 U1_5f_y(3x^2-y^2)      U1_6p_z      5.84836       0  -1  -1           -0.00000 
      1    U1_5f_xyz      U1_6p_z      5.84836       0  -1  -1            0.00000 
      1   U1_5f_yz^2      U1_6p_z      5.84836       0  -1  -1           -0.00000 
      1    U1_5f_z^3      U1_6p_z      5.84836       0  -1  -1            0.00000 
      1   U1_5f_xz^2      U1_6p_z      5.84836       0  -1  -1           -0.00000 
      1 U1_5f_z(x^2-y^2)      U1_6p_z      5.84836       0  -1  -1            0.00000 
      1 U1_5f_x(x^2-3y^2)      U1_6p_z      5.84836       0  -1  -1           -0.00000 
      1        U1_6s      U1_6p_x      5.84836       0  -1  -1           -0.00000 
      1        U1_7s      U1_6p_x      5.84836       0  -1  -1            0.00000 
      1      U1_6p_y      U1_6p_x      5.84836       0  -1  -1           -0.00000 
      1      U1_6p_z      U1_6p_x      5.84836       0  -1  -1           -0.00000 
      1      U1_6p_x      U1_6p_x      5.84836       0  -1  -1            0.00000 
      1     U1_6d_xy      U1_6p_x      5.84836       0  -1  -1            0.00000 
      1     U1_6d_yz      U1_6p_x      5.84836       0  -1  -1            0.00000 
      1    U1_6d_z^2      U1_6p_x      5.84836       0  -1  -1           -0.00000 
      1     U1_6d_xz      U1_6p_x      5.84836       0  -1  -1            0.00000 
      1 U1_6d_x^2-y^2      U1_6p_x      5.84836       0  -1  -1            0.00000 
      1 U1_5f_y(3x^2-y^2)      U1_6p_x      5.84836       0  -1  -1           -0.00000 
      1    U1_5f_xyz      U1_6p_x      5.84836       0  -1  -1           -0.00000 
      1   U1_5f_yz^2      U1_6p_x      5.84836       0  -1  -1           -0.00000 
      1    U1_5f_z^3      U1_6p_x      5.84836       0  -1  -1            0.00000 
      1   U1_5f_xz^2      U1_6p_x      5.84836       0  -1  -1            0.00000 
      1 U1_5f_z(x^2-y^2)      U1_6p_x      5.84836       0  -1  -1           -0.00000 
      1 U1_5f_x(x^2-3y^2)      U1_6p_x      5.84836       0  -1  -1            0.00000 
      1        U1_6s     U1_6d_xy      5.84836       0  -1  -1           -0.00000 
      1        U1_7s     U1_6d_xy      5.84836       0  -1  -1            0.00000 
      1      U1_6p_y     U1_6d_xy      5.84836       0  -1  -1            0.00000 
      1      U1_6p_z     U1_6d_xy      5.84836       0  -1  -1            0.00000 
      1      U1_6p_x     U1_6d_xy      5.84836       0  -1  -1            0.00000 
      1     U1_6d_xy     U1_6d_xy      5.84836       0  -1  -1           -0.00000 
      1     U1_6d_yz     U1_6d_xy      5.84836       0  -1  -1            0.00000 
      1    U1_6d_z^2     U1_6d_xy      5.84836       0  -1  -1            0.00000 
      1     U1_6d_xz     U1_6d_xy      5.84836       0  -1  -1           -0.00005 
      1 U1_6d_x^2-y^2     U1_6d_xy      5.84836       0  -1  -1            0.00000 
      1 U1_5f_y(3x^2-y^2)     U1_6d_xy      5.84836       0  -1  -1            0.00000 
      1    U1_5f_xyz     U1_6d_xy      5.84836       0  -1  -1           -0.00000 
      1   U1_5f_yz^2     U1_6d_xy      5.84836       0  -1  -1            0.00000 
      1    U1_5f_z^3     U1_6d_xy      5.84836       0  -1  -1            0.00000 
      1   U1_5f_xz^2     U1_6d_xy      5.84836       0  -1  -1           -0.00000 
      1 U1_5f_z(x^2-y^2)     U1_6d_xy      5.84836       0  -1  -1            0.00000 
      1 U1_5f_x(x^2-3y^2)     U1_6d_xy      5.84836       0  -1  -1            0.00000 
      1        U1_6s     U1_6d_yz      5.84836       0  -1  -1           -0.00020 
      1        U1_7s     U1_6d_yz      5.84836       0  -1  -1           -0.00027 
      1      U1_6p_y     U1_6d_yz      5.84836       0  -1  -1           -0.00005 
      1      U1_6p_z     U1_6d_yz      5.84836       0  -1  -1           -0.00005 
      1      U1_6p_x     U1_6d_yz      5.84836       0  -1  -1            0.00000 
      1     U1_6d_xy     U1_6d_yz      5.84836       0  -1  -1           -0.00000 
      1     U1_6d_yz     U1_6d_yz      5.84836       0  -1  -1            0.00030 
      1    U1_6d_z^2     U1_6d_yz      5.84836       0  -1  -1            0.00000 
      1     U1_6d_xz     U1_6d_yz      5.84836       0  -1  -1            0.00000 
      1 U1_6d_x^2-y^2     U1_6d_yz      5.84836       0  -1  -1           -0.00000 
      1 U1_5f_y(3x^2-y^2)     U1_6d_yz      5.84836       0  -1  -1           -0.00001 
      1    U1_5f_xyz     U1_6d_yz      5.84836       0  -1  -1            0.00000 
      1   U1_5f_yz^2     U1_6d_yz      5.84836       0  -1  -1            0.00001 
      1    U1_5f_z^3     U1_6d_yz      5.84836       0  -1  -1           -0.00002 
      1   U1_5f_xz^2     U1_6d_yz      5.84836       0  -1  -1            0.00000 
      1 U1_5f_z(x^2-y^2)     U1_6d_yz      5.84836       0  -1  -1            0.00002 
      1 U1_5f_x(x^2-3y^2)     U1_6d_yz      5.84836       0  -1  -1            0.00000 
      1        U1_6s    U1_6d_z^2      5.84836       0  -1  -1           -0.00001 
      1        U1_7s    U1_6d_z^2      5.84836       0  -1  -1           -0.00002 
      1      U1_6p_y    U1_6d_z^2      5.84836       0  -1  -1            0.00000 
      1      U1_6p_z    U1_6d_z^2      5.84836       0  -1  -1           -0.00011 
      1      U1_6p_x    U1_6d_z^2      5.84836       0  -1  -1            0.00000 
      1     U1_6d_xy    U1_6d_z^2      5.84836       0  -1  -1            0.00000 
      1     U1_6d_yz    U1_6d_z^2      5.84836       0  -1  -1           -0.00000 
      1    U1_6d_z^2    U1_6d_z^2      5.84836       0  -1  -1           -0.00030 
      1     U1_6d_xz    U1_6d_z^2      5.84836       0  -1  -1           -0.00000 
      1 U1_6d_x^2-y^2    U1_6d_z^2      5.84836       0  -1  -1           -0.00029 
      1 U1_5f_y(3x^2-y^2)    U1_6d_z^2      5.84836       0  -1  -1           -0.00001 
      1    U1_5f_xyz    U1_6d_z^2      5.84836       0  -1  -1            0.00000 
      1   U1_5f_yz^2    U1_6d_z^2      5.84836       0  -1  -1           -0.00000 
      1    U1_5f_z^3    U1_6d_z^2      5.84836       0  -1  -1           -0.00002 
      1   U1_5f_xz^2    U1_6d_z^2      5.84836       0  -1  -1            0.00000 
      1 U1_5f_z(x^2-y^2)    U1_6d_z^2      5.84836       0  -1  -1           -0.00000 
      1 U1_5f_x(x^2-3y^2)    U1_6d_z^2      5.84836       0  -1  -1            0.00000 
      1        U1_6s     U1_6d_xz      5.84836       0  -1  -1           -0.00000 
      1        U1_7s     U1_6d_xz      5.84836       0  -1  -1            0.00000 
      1      U1_6p_y     U1_6d_xz      5.84836       0  -1  -1            0.00000 
      1      U1_6p_z     U1_6d_xz      5.84836       0  -1  -1            0.00000 
      1      U1_6p_x     U1_6d_xz      5.84836       0  -1  -1            0.00000 
      1     U1_6d_xy     U1_6d_xz      5.84836       0  -1  -1           -0.00005 
      1     U1_6d_yz     U1_6d_xz      5.84836       0  -1  -1           -0.00000 
      1    U1_6d_z^2     U1_6d_xz      5.84836       0  -1  -1            0.00000 
      1     U1_6d_xz     U1_6d_xz      5.84836       0  -1  -1           -0.00000 
      1 U1_6d_x^2-y^2     U1_6d_xz      5.84836       0  -1  -1           -0.00000 
      1 U1_5f_y(3x^2-y^2)     U1_6d_xz      5.84836       0  -1  -1            0.00000 
      1    U1_5f_xyz     U1_6d_xz      5.84836       0  -1  -1           -0.00000 
      1   U1_5f_yz^2     U1_6d_xz      5.84836       0  -1  -1            0.00000 
      1    U1_5f_z^3     U1_6d_xz      5.84836       0  -1  -1            0.00000 
      1   U1_5f_xz^2     U1_6d_xz      5.84836       0  -1  -1            0.00000 
      1 U1_5f_z(x^2-y^2)     U1_6d_xz      5.84836       0  -1  -1            0.00000 
      1 U1_5f_x(x^2-3y^2)     U1_6d_xz      5.84836       0  -1  -1           -0.00000 
      1        U1_6s U1_6d_x^2-y^2      5.84836       0  -1  -1           -0.00002 
      1        U1_7s U1_6d_x^2-y^2      5.84836       0  -1  -1           -0.00006 
      1      U1_6p_y U1_6d_x^2-y^2      5.84836       0  -1  -1           -0.00011 
      1      U1_6p_z U1_6d_x^2-y^2      5.84836       0  -1  -1           -0.00003 
      1      U1_6p_x U1_6d_x^2-y^2      5.84836       0  -1  -1           -0.00000 
      1     U1_6d_xy U1_6d_x^2-y^2      5.84836       0  -1  -1            0.00000 
      1     U1_6d_yz U1_6d_x^2-y^2      5.84836       0  -1  -1           -0.00000 
      1    U1_6d_z^2 U1_6d_x^2-y^2      5.84836       0  -1  -1           -0.00028 
      1     U1_6d_xz U1_6d_x^2-y^2      5.84836       0  -1  -1            0.00000 
      1 U1_6d_x^2-y^2 U1_6d_x^2-y^2      5.84836       0  -1  -1            0.00001 
      1 U1_5f_y(3x^2-y^2) U1_6d_x^2-y^2      5.84836       0  -1  -1           -0.00000 
      1    U1_5f_xyz U1_6d_x^2-y^2      5.84836       0  -1  -1            0.00000 
      1   U1_5f_yz^2 U1_6d_x^2-y^2      5.84836       0  -1  -1           -0.00000 
      1    U1_5f_z^3 U1_6d_x^2-y^2      5.84836       0  -1  -1            0.00001 
      1   U1_5f_xz^2 U1_6d_x^2-y^2      5.84836       0  -1  -1            0.00000 
      1 U1_5f_z(x^2-y^2) U1_6d_x^2-y^2      5.84836       0  -1  -1           -0.00001 
      1 U1_5f_x(x^2-3y^2) U1_6d_x^2-y^2      5.84836       0  -1  -1            0.00000 
      1        U1_6s U1_5f_y(3x^2-y^2)      5.84836       0  -1  -1           -0.00000 
      1        U1_7s U1_5f_y(3x^2-y^2)      5.84836       0  -1  -1           -0.00001 
      1      U1_6p_y U1_5f_y(3x^2-y^2)      5.84836       0  -1  -1            0.00000 
      1      U1_6p_z U1_5f_y(3x^2-y^2)      5.84836       0  -1  -1           -0.00000 
      1      U1_6p_x U1_5f_y(3x^2-y^2)      5.84836       0  -1  -1            0.00000 
      1     U1_6d_xy U1_5f_y(3x^2-y^2)      5.84836       0  -1  -1            0.00000 
      1     U1_6d_yz U1_5f_y(3x^2-y^2)      5.84836       0  -1  -1           -0.00001 
      1    U1_6d_z^2 U1_5f_y(3x^2-y^2)      5.84836       0  -1  -1           -0.00001 
      1     U1_6d_xz U1_5f_y(3x^2-y^2)      5.84836       0  -1  -1            0.00000 
      1 U1_6d_x^2-y^2 U1_5f_y(3x^2-y^2)      5.84836       0  -1  -1           -0.00000 
      1 U1_5f_y(3x^2-y^2) U1_5f_y(3x^2-y^2)      5.84836       0  -1  -1           -0.00000 
      1    U1_5f_xyz U1_5f_y(3x^2-y^2)      5.84836       0  -1  -1            0.00000 
      1   U1_5f_yz^2 U1_5f_y(3x^2-y^2)      5.84836       0  -1  -1           -0.00000 
      1    U1_5f_z^3 U1_5f_y(3x^2-y^2)      5.84836       0  -1  -1            0.00001 
      1   U1_5f_xz^2 U1_5f_y(3x^2-y^2)      5.84836       0  -1  -1            0.00000 
      1 U1_5f_z(x^2-y^2) U1_5f_y(3x^2-y^2)      5.84836       0  -1  -1           -0.00000 
      1 U1_5f_x(x^2-3y^2) U1_5f_y(3x^2-y^2)      5.84836       0  -1  -1            0.00000 
      1        U1_6s    U1_5f_xyz      5.84836       0  -1  -1           -0.00000 
      1        U1_7s    U1_5f_xyz      5.84836       0  -1  -1            0.00000 
      1      U1_6p_y    U1_5f_xyz      5.84836       0  -1  -1            0.00000 
      1      U1_6p_z    U1_5f_xyz      5.84836       0  -1  -1            0.00000 
      1      U1_6p_x    U1_5f_xyz      5.84836       0  -1  -1           -0.00000 
      1     U1_6d_xy    U1_5f_xyz      5.84836       0  -1  -1           -0.00000 
      1     U1_6d_yz    U1_5f_xyz      5.84836       0  -1  -1            0.00000 
      1    U1_6d_z^2    U1_5f_xyz      5.84836       0  -1  -1            0.00000 
      1     U1_6d_xz    U1_5f_xyz      5.84836       0  -1  -1           -0.00000 
      1 U1_6d_x^2-y^2    U1_5f_xyz      5.84836       0  -1  -1            0.00000 
      1 U1_5f_y(3x^2-y^2)    U1_5f_xyz      5.84836       0  -1  -1           -0.00000 
      1    U1_5f_xyz    U1_5f_xyz      5.84836       0  -1  -1           -0.00000 
      1   U1_5f_yz^2    U1_5f_xyz      5.84836       0  -1  -1            0.00000 
      1    U1_5f_z^3    U1_5f_xyz      5.84836       0  -1  -1            0.00000 
      1   U1_5f_xz^2    U1_5f_xyz      5.84836       0  -1  -1            0.00000 
      1 U1_5f_z(x^2-y^2)    U1_5f_xyz      5.84836       0  -1  -1            0.00000 
      1 U1_5f_x(x^2-3y^2)    U1_5f_xyz      5.84836       0  -1  -1            0.00000 
      1        U1_6s   U1_5f_yz^2      5.84836       0  -1  -1            0.00001 
      1        U1_7s   U1_5f_yz^2      5.84836       0  -1  -1            0.00001 
      1      U1_6p_y   U1_5f_yz^2      5.84836       0  -1  -1            0.00000 
      1      U1_6p_z   U1_5f_yz^2      5.84836       0  -1  -1           -0.00000 
      1      U1_6p_x   U1_5f_yz^2      5.84836       0  -1  -1           -0.00000 
      1     U1_6d_xy   U1_5f_yz^2      5.84836       0  -1  -1            0.00000 
      1     U1_6d_yz   U1_5f_yz^2      5.84836       0  -1  -1            0.00001 
      1    U1_6d_z^2   U1_5f_yz^2      5.84836       0  -1  -1           -0.00000 
      1     U1_6d_xz   U1_5f_yz^2      5.84836       0  -1  -1            0.00000 
      1 U1_6d_x^2-y^2   U1_5f_yz^2      5.84836       0  -1  -1           -0.00000 
      1 U1_5f_y(3x^2-y^2)   U1_5f_yz^2      5.84836       0  -1  -1           -0.00000 
      1    U1_5f_xyz   U1_5f_yz^2      5.84836       0  -1  -1            0.00000 
      1   U1_5f_yz^2   U1_5f_yz^2      5.84836       0  -1  -1            0.00000 
      1    U1_5f_z^3   U1_5f_yz^2      5.84836       0  -1  -1           -0.00000 
      1   U1_5f_xz^2   U1_5f_yz^2      5.84836       0  -1  -1           -0.00000 
      1 U1_5f_z(x^2-y^2)   U1_5f_yz^2      5.84836       0  -1  -1           -0.00000 
      1 U1_5f_x(x^2-3y^2)   U1_5f_yz^2      5.84836       0  -1  -1           -0.00000 
      1        U1_6s    U1_5f_z^3      5.84836       0  -1  -1            0.00000 
      1        U1_7s    U1_5f_z^3      5.84836       0  -1  -1            0.00000 
      1      U1_6p_y    U1_5f_z^3      5.84836       0  -1  -1           -0.00001 
      1      U1_6p_z    U1_5f_z^3      5.84836       0  -1  -1            0.00000 
      1      U1_6p_x    U1_5f_z^3      5.84836       0  -1  -1            0.00000 
      1     U1_6d_xy    U1_5f_z^3      5.84836       0  -1  -1            0.00000 
      1     U1_6d_yz    U1_5f_z^3      5.84836       0  -1  -1           -0.00002 
      1    U1_6d_z^2    U1_5f_z^3      5.84836       0  -1  -1           -0.00002 
      1     U1_6d_xz    U1_5f_z^3      5.84836       0  -1  -1            0.00000 
      1 U1_6d_x^2-y^2    U1_5f_z^3      5.84836       0  -1  -1            0.00001 
      1 U1_5f_y(3x^2-y^2)    U1_5f_z^3      5.84836       0  -1  -1            0.00001 
      1    U1_5f_xyz    U1_5f_z^3      5.84836       0  -1  -1            0.00000 
      1   U1_5f_yz^2    U1_5f_z^3      5.84836       0  -1  -1           -0.00000 
      1    U1_5f_z^3    U1_5f_z^3      5.84836       0  -1  -1           -0.00000 
      1   U1_5f_xz^2    U1_5f_z^3      5.84836       0  -1  -1            0.00000 
      1 U1_5f_z(x^2-y^2)    U1_5f_z^3      5.84836       0  -1  -1           -0.00000 
      1 U1_5f_x(x^2-3y^2)    U1_5f_z^3      5.84836       0  -1  -1           -0.00000 
      1        U1_6s   U1_5f_xz^2      5.84836       0  -1  -1           -0.00000 
      1        U1_7s   U1_5f_xz^2      5.84836       0  -1  -1            0.00000 
      1      U1_6p_y   U1_5f_xz^2      5.84836       0  -1  -1           -0.00000 
      1      U1_6p_z   U1_5f_xz^2      5.84836       0  -1  -1           -0.00000 
      1      U1_6p_x   U1_5f_xz^2      5.84836       0  -1  -1            0.00000 
      1     U1_6d_xy   U1_5f_xz^2      5.84836       0  -1  -1           -0.00000 
      1     U1_6d_yz   U1_5f_xz^2      5.84836       0  -1  -1            0.00000 
      1    U1_6d_z^2   U1_5f_xz^2      5.84836       0  -1  -1            0.00000 
      1     U1_6d_xz   U1_5f_xz^2      5.84836       0  -1  -1            0.00000 
      1 U1_6d_x^2-y^2   U1_5f_xz^2      5.84836       0  -1  -1           -0.00000 
      1 U1_5f_y(3x^2-y^2)   U1_5f_xz^2      5.84836       0  -1  -1           -0.00000 
      1    U1_5f_xyz   U1_5f_xz^2      5.84836       0  -1  -1            0.00000 
      1   U1_5f_yz^2   U1_5f_xz^2      5.84836       0  -1  -1           -0.00000 
      1    U1_5f_z^3   U1_5f_xz^2      5.84836       0  -1  -1            0.00000 
      1   U1_5f_xz^2   U1_5f_xz^2      5.84836       0  -1  -1           -0.00000 
      1 U1_5f_z(x^2-y^2)   U1_5f_xz^2      5.84836       0  -1  -1           -0.00000 
      1 U1_5f_x(x^2-3y^2)   U1_5f_xz^2      5.84836       0  -1  -1           -0.00000 
      1        U1_6s U1_5f_z(x^2-y^2)      5.84836       0  -1  -1            0.00000 
      1        U1_7s U1_5f_z(x^2-y^2)      5.84836       0  -1  -1            0.00000 
      1      U1_6p_y U1_5f_z(x^2-y^2)      5.84836       0  -1  -1            0.00000 
      1      U1_6p_z U1_5f_z(x^2-y^2)      5.84836       0  -1  -1            0.00000 
      1      U1_6p_x U1_5f_z(x^2-y^2)      5.84836       0  -1  -1           -0.00000 
      1     U1_6d_xy U1_5f_z(x^2-y^2)      5.84836       0  -1  -1            0.00000 
      1     U1_6d_yz U1_5f_z(x^2-y^2)      5.84836       0  -1  -1            0.00002 
      1    U1_6d_z^2 U1_5f_z(x^2-y^2)      5.84836       0  -1  -1           -0.00000 
      1     U1_6d_xz U1_5f_z(x^2-y^2)      5.84836       0  -1  -1           -0.00000 
      1 U1_6d_x^2-y^2 U1_5f_z(x^2-y^2)      5.84836       0  -1  -1           -0.00001 
      1 U1_5f_y(3x^2-y^2) U1_5f_z(x^2-y^2)      5.84836       0  -1  -1           -0.00000 
      1    U1_5f_xyz U1_5f_z(x^2-y^2)      5.84836       0  -1  -1            0.00000 
      1   U1_5f_yz^2 U1_5f_z(x^2-y^2)      5.84836       0  -1  -1           -0.00000 
      1    U1_5f_z^3 U1_5f_z(x^2-y^2)      5.84836       0  -1  -1           -0.00000 
      1   U1_5f_xz^2 U1_5f_z(x^2-y^2)      5.84836       0  -1  -1           -0.00000 
      1 U1_5f_z(x^2-y^2) U1_5f_z(x^2-y^2)      5.84836       0  -1  -1           -0.00000 
      1 U1_5f_x(x^2-3y^2) U1_5f_z(x^2-y^2)      5.84836       0  -1  -1           -0.00000 
      1        U1_6s U1_5f_x(x^2-3y^2)      5.84836       0  -1  -1           -0.00000 
      1        U1_7s U1_5f_x(x^2-3y^2)      5.84836       0  -1  -1            0.00000 
      1      U1_6p_y U1_5f_x(x^2-3y^2)      5.84836       0  -1  -1           -0.00000 
      1      U1_6p_z U1_5f_x(x^2-3y^2)      5.84836       0  -1  -1           -0.00000 
      1      U1_6p_x U1_5f_x(x^2-3y^2)      5.84836       0  -1  -1            0.00000 
      1     U1_6d_xy U1_5f_x(x^2-3y^2)      5.84836       0  -1  -1            0.00000 
      1     U1_6d_yz U1_5f_x(x^2-3y^2)      5.84836       0  -1  -1            0.00000 
      1    U1_6d_z^2 U1_5f_x(x^2-3y^2)      5.84836       0  -1  -1            0.00000 
      1     U1_6d_xz U1_5f_x(x^2-3y^2)      5.84836       0  -1  -1           -0.00000 
      1 U1_6d_x^2-y^2 U1_5f_x(x^2-3y^2)      5.84836       0  -1  -1            0.00000 
      1 U1_5f_y(3x^2-y^2) U1_5f_x(x^2-3y^2)      5.84836       0  -1  -1           -0.00000 
      1    U1_5f_xyz U1_5f_x(x^2-3y^2)      5.84836       0  -1  -1            0.00000 
      1   U1_5f_yz^2 U1_5f_x(x^2-3y^2)      5.84836       0  -1  -1           -0.00000 
      1    U1_5f_z^3 U1_5f_x(x^2-3y^2)      5.84836       0  -1  -1           -0.00000 
      1   U1_5f_xz^2 U1_5f_x(x^2-3y^2)      5.84836       0  -1  -1           -0.00000 
      1 U1_5f_z(x^2-y^2) U1_5f_x(x^2-3y^2)      5.84836       0  -1  -1           -0.00000 
      1 U1_5f_x(x^2-3y^2) U1_5f_x(x^2-3y^2)      5.84836       0  -1  -1            0.00000 
      2           U1           U1      5.84836      -1   0  -1           -0.00299 
      2        U1_6s        U1_6s      5.84836      -1   0  -1           -0.00012 
      2        U1_7s        U1_6s      5.84836      -1   0  -1           -0.00002 
      2      U1_6p_y        U1_6s      5.84836      -1   0  -1           -0.00000 
      2      U1_6p_z        U1_6s      5.84836      -1   0  -1           -0.00001 
      2      U1_6p_x        U1_6s      5.84836      -1   0  -1           -0.00001 
      2     U1_6d_xy        U1_6s      5.84836      -1   0  -1           -0.00000 
      2     U1_6d_yz        U1_6s      5.84836      -1   0  -1           -0.00000 
      2    U1_6d_z^2        U1_6s      5.84836      -1   0  -1           -0.00001 
      2     U1_6d_xz        U1_6s      5.84836      -1   0  -1           -0.00020 
      2 U1_6d_x^2-y^2        U1_6s      5.84836      -1   0  -1           -0.00001 
      2 U1_5f_y(3x^2-y^2)        U1_6s      5.84836      -1   0  -1           -0.00000 
      2    U1_5f_xyz        U1_6s      5.84836      -1   0  -1           -0.00000 
      2   U1_5f_yz^2        U1_6s      5.84836      -1   0  -1           -0.00000 
      2    U1_5f_z^3        U1_6s      5.84836      -1   0  -1            0.00000 
      2   U1_5f_xz^2        U1_6s      5.84836      -1   0  -1            0.00001 
      2 U1_5f_z(x^2-y^2)        U1_6s      5.84836      -1   0  -1            0.00000 
      2 U1_5f_x(x^2-3y^2)        U1_6s      5.84836      -1   0  -1           -0.00000 
      2        U1_6s        U1_7s      5.84836      -1   0  -1           -0.00002 
      2        U1_7s        U1_7s      5.84836      -1   0  -1           -0.00044 
      2      U1_6p_y        U1_7s      5.84836      -1   0  -1            0.00000 
      2      U1_6p_z        U1_7s      5.84836      -1   0  -1           -0.00004 
      2      U1_6p_x        U1_7s      5.84836      -1   0  -1           -0.00004 
      2     U1_6d_xy        U1_7s      5.84836      -1   0  -1            0.00000 
      2     U1_6d_yz        U1_7s      5.84836      -1   0  -1            0.00000 
      2    U1_6d_z^2        U1_7s      5.84836      -1   0  -1           -0.00002 
      2     U1_6d_xz        U1_7s      5.84836      -1   0  -1           -0.00027 
      2 U1_6d_x^2-y^2        U1_7s      5.84836      -1   0  -1           -0.00006 
      2 U1_5f_y(3x^2-y^2)        U1_7s      5.84836      -1   0  -1            0.00000 
      2    U1_5f_xyz        U1_7s      5.84836      -1   0  -1           -0.00000 
      2   U1_5f_yz^2        U1_7s      5.84836      -1   0  -1            0.00000 
      2    U1_5f_z^3        U1_7s      5.84836      -1   0  -1            0.00000 
      2   U1_5f_xz^2        U1_7s      5.84836      -1   0  -1            0.00001 
      2 U1_5f_z(x^2-y^2)        U1_7s      5.84836      -1   0  -1            0.00000 
      2 U1_5f_x(x^2-3y^2)        U1_7s      5.84836      -1   0  -1           -0.00001 
      2        U1_6s      U1_6p_y      5.84836      -1   0  -1            0.00000 
      2        U1_7s      U1_6p_y      5.84836      -1   0  -1            0.00000 
      2      U1_6p_y      U1_6p_y      5.84836      -1   0  -1            0.00000 
      2      U1_6p_z      U1_6p_y      5.84836      -1   0  -1            0.00000 
      2      U1_6p_x      U1_6p_y      5.84836      -1   0  -1            0.00000 
      2     U1_6d_xy      U1_6p_y      5.84836      -1   0  -1            0.00000 
      2     U1_6d_yz      U1_6p_y      5.84836      -1   0  -1            0.00000 
      2    U1_6d_z^2      U1_6p_y      5.84836      -1   0  -1            0.00000 
      2     U1_6d_xz      U1_6p_y      5.84836      -1   0  -1           -0.00000 
      2 U1_6d_x^2-y^2      U1_6p_y      5.84836      -1   0  -1           -0.00000 
      2 U1_5f_y(3x^2-y^2)      U1_6p_y      5.84836      -1   0  -1            0.00000 
      2    U1_5f_xyz      U1_6p_y      5.84836      -1   0  -1           -0.00000 
      2   U1_5f_yz^2      U1_6p_y      5.84836      -1   0  -1            0.00000 
      2    U1_5f_z^3      U1_6p_y      5.84836      -1   0  -1           -0.00000 
      2   U1_5f_xz^2      U1_6p_y      5.84836      -1   0  -1            0.00000 
      2 U1_5f_z(x^2-y^2)      U1_6p_y      5.84836      -1   0  -1           -0.00000 
      2 U1_5f_x(x^2-3y^2)      U1_6p_y      5.84836      -1   0  -1           -0.00000 
      2        U1_6s      U1_6p_z      5.84836      -1   0  -1           -0.00001 
      2        U1_7s      U1_6p_z      5.84836      -1   0  -1           -0.00004 
      2      U1_6p_y      U1_6p_z      5.84836      -1   0  -1           -0.00000 
      2      U1_6p_z      U1_6p_z      5.84836      -1   0  -1           -0.00000 
      2      U1_6p_x      U1_6p_z      5.84836      -1   0  -1           -0.00001 
      2     U1_6d_xy      U1_6p_z      5.84836      -1   0  -1            0.00000 
      2     U1_6d_yz      U1_6p_z      5.84836      -1   0  -1           -0.00000 
      2    U1_6d_z^2      U1_6p_z      5.84836      -1   0  -1           -0.00011 
      2     U1_6d_xz      U1_6p_z      5.84836      -1   0  -1           -0.00005 
      2 U1_6d_x^2-y^2      U1_6p_z      5.84836      -1   0  -1           -0.00002 
      2 U1_5f_y(3x^2-y^2)      U1_6p_z      5.84836      -1   0  -1           -0.00000 