================================================================================
| EXCITING BORON started                                                       =
| version hash id:                                                             =
| MPI version using     16 processor(s)                                        =
|                                                                              =
| Date (DD-MM-YYYY) : 13-08-2015                                               =
| Time (hh:mm:ss)   : 00:50:51                                                 =
|                                                                              =
| All units are atomic (Hartree, Bohr, etc.)                                   =
================================================================================
 
********************************************************************************
| Structural optimisation starting from atomic densities                       *
********************************************************************************
 
++++++++++++++++++++++++++++++++++++++++++++++++++++++++++++++++++++++++++++++++
| Starting initialization                                                      +
++++++++++++++++++++++++++++++++++++++++++++++++++++++++++++++++++++++++++++++++
 
 Lattice vectors (cartesian) :
      2.3270000000      3.9482099158     -0.0814492533
     -2.3270000000      3.9482099158     -0.0814492533
      0.0000000000     -0.1328919388      6.5747591018
 
 Reciprocal lattice vectors (cartesian) :
      1.3500613036      0.7960324348      0.0160897596
     -1.3500613036      0.7960324348      0.0160897596
      0.0000000000      0.0197227751      0.9560511963
 
 Unit cell volume                           :     120.7606196771
 Brillouin zone volume                      :       2.0540654239
 
 Species :    1 (C)
     parameters loaded from                 :    C.xml
     name                                   :    carbon
     nuclear charge                         :      -6.00000000
     electronic charge                      :       6.00000000
     atomic mass                            :   21894.16673000
     muffin-tin radius                      :       1.20000000
     # of radial points in muffin-tin       :     250
 
     atomic positions (lattice) :
       1 :   0.00000000  0.00000000  0.00000000
       2 :   0.33333333  0.33333333  0.00000000
 
 Total number of atoms per unit cell        :       2
 
 Spin treatment                             :    spin-unpolarised
 
 Number of Bravais lattice symmetries       :       4
 Number of crystal symmetries               :       4
 
 k-point grid                               :      34   34   24
 Total number of k-points                   :    7159
 k-point set is reduced with crystal symmetries
 
 R^MT_min * |G+k|_max (rgkmax)              :       8.00000000
 Species with R^MT_min                      :       1 (C)
 Maximum |G+k| for APW functions            :       6.66666667
 Maximum |G| for potential and density      :      20.00000000
 
 G-vector grid sizes                        :      30    30    45
 Total number of G-vectors                  :   16319
 
 Maximum angular momentum used for
     APW functions                          :       8
     computing H and O matrix elements      :       8
     potential and density                  :       8
     inner part of muffin-tin               :       2
 
 Total nuclear charge                       :     -12.00000000
 Total electronic charge                    :      12.00000000
 Total core charge                          :       4.00000000
 Total valence charge                       :       8.00000000
 
 Number of empty states                     :       5
 Total number of valence states             :      10
 
 Maximum Hamiltonian size                   :     631
 Maximum number of plane-waves              :     623
 Total number of local-orbitals             :       8
 
 Exchange-correlation type                  :      20
     Perdew-Burke-Ernzerhof, Phys. Rev. Lett. 77, 3865 (1996)
     Generalised gradient approximation (GGA)
 
 Smearing scheme                            :    Gaussian
 Smearing width                             :       0.01000000
 
 Using multisecant Broyden potential mixing
 
++++++++++++++++++++++++++++++++++++++++++++++++++++++++++++++++++++++++++++++++
| Ending initialization                                                        +
++++++++++++++++++++++++++++++++++++++++++++++++++++++++++++++++++++++++++++++++
 
********************************************************************************
| Groundstate module started                                                   *
********************************************************************************
 Output level for this task is set to normal
 
++++++++++++++++++++++++++++++++++++++++++++++++++++++++++++++++++++++++++++++++
| Self-consistent loop started                                                 +
++++++++++++++++++++++++++++++++++++++++++++++++++++++++++++++++++++++++++++++++
 Density and potential initialised from atomic data
 
 
++++++++++++++++++++++++++++++++++++++++++++++++++++++++++++++++++++++++++++++++
| SCF iteration number :    1                                                  +
++++++++++++++++++++++++++++++++++++++++++++++++++++++++++++++++++++++++++++++++
 Total energy                               :       -78.47831930
 _______________________________________________________________
 Fermi energy                               :         0.16589265
 Kinetic energy                             :        74.51557876
 Coulomb energy                             :      -142.04395691
 Exchange energy                            :       -10.52927569
 Correlation energy                         :        -0.42066547
 
 DOS at Fermi energy (states/Ha/cell)       :         0.86915973
 
 Electron charges :
     core                                   :         4.00000000
     core leakage                           :         0.00128504
     valence                                :         8.00000000
     interstitial                           :         4.48099854
     charge in muffin-tin spheres :
                  atom     1     C          :         3.75950073
                  atom     2     C          :         3.75950073
     total charge in muffin-tins            :         7.51900146
     total charge                           :        12.00000000
 
 Wall time (seconds)                        :       163.13
 
++++++++++++++++++++++++++++++++++++++++++++++++++++++++++++++++++++++++++++++++
| SCF iteration number :    2                                                  +
++++++++++++++++++++++++++++++++++++++++++++++++++++++++++++++++++++++++++++++++
 Total energy                               :       -77.64433551
 _______________________________________________________________
 Fermi energy                               :         0.18918183
 Kinetic energy                             :        75.08422083
 Coulomb energy                             :      -141.81752077
 Exchange energy                            :       -10.48943508
 Correlation energy                         :        -0.42160049
 
 DOS at Fermi energy (states/Ha/cell)       :         0.93217686
 
 Electron charges :
     core                                   :         4.00000000
     core leakage                           :         0.00129827
     valence                                :         8.00000000
     interstitial                           :         4.54776395
     charge in muffin-tin spheres :
                  atom     1     C          :         3.72611802
                  atom     2     C          :         3.72611802
     total charge in muffin-tins            :         7.45223605
     total charge                           :        12.00000000
 
 Wall time (seconds)                        :       325.04
 
 RMS change in effective potential (target) :   1.61333      ( 0.100000E-05)
 Absolute change in total energy   (target) :  0.833984      ( 0.100000E-06)
 Charge distance                   (target) :  0.134733E-01  ( 0.100000E-04)
 Abs. change in max-nonIBS-force   (target) :  0.202227E-01  ( 0.250000E-05)
 
++++++++++++++++++++++++++++++++++++++++++++++++++++++++++++++++++++++++++++++++
| SCF iteration number :    3                                                  +
++++++++++++++++++++++++++++++++++++++++++++++++++++++++++++++++++++++++++++++++
 Total energy                               :       -77.05313528
 _______________________________________________________________
 Fermi energy                               :         0.20505218
 Kinetic energy                             :        75.48338763
 Coulomb energy                             :      -141.65366742
 Exchange energy                            :       -10.46051630
 Correlation energy                         :        -0.42233918
 
 DOS at Fermi energy (states/Ha/cell)       :         0.98466093
 
 Electron charges :
     core                                   :         4.00000000
     core leakage                           :         0.00130685
     valence                                :         8.00000000
     interstitial                           :         4.59648173
     charge in muffin-tin spheres :
                  atom     1     C          :         3.70175914
                  atom     2     C          :         3.70175914
     total charge in muffin-tins            :         7.40351827
     total charge                           :        12.00000000
 
 Wall time (seconds)                        :       487.03
 
 RMS change in effective potential (target) :   1.19125      ( 0.100000E-05)
 Absolute change in total energy   (target) :  0.591200      ( 0.100000E-06)
 Charge distance                   (target) :  0.994752E-02  ( 0.100000E-04)
 Abs. change in max-nonIBS-force   (target) :  0.972618E-02  ( 0.250000E-05)
 
++++++++++++++++++++++++++++++++++++++++++++++++++++++++++++++++++++++++++++++++
| SCF iteration number :    4                                                  +
++++++++++++++++++++++++++++++++++++++++++++++++++++++++++++++++++++++++++++++++
 Total energy                               :       -76.79275073
 _______________________________________________________________
 Fermi energy                               :         0.21124590
 Kinetic energy                             :        75.67379594
 Coulomb energy                             :      -141.59903402
 Exchange energy                            :       -10.44468514
 Correlation energy                         :        -0.42282752
 
 DOS at Fermi energy (states/Ha/cell)       :         1.02030977
 
 Electron charges :
     core                                   :         4.00000000
     core leakage                           :         0.00129925
     valence                                :         8.00000000
     interstitial                           :         4.62789521
     charge in muffin-tin spheres :
                  atom     1     C          :         3.68605240
                  atom     2     C          :         3.68605240
     total charge in muffin-tins            :         7.37210479
     total charge                           :        12.00000000
 
 Wall time (seconds)                        :       648.66
 
 RMS change in effective potential (target) :  0.706484E-01  ( 0.100000E-05)
 Absolute change in total energy   (target) :  0.260385      ( 0.100000E-06)
 Charge distance                   (target) :  0.692716E-02  ( 0.100000E-04)
 Abs. change in max-nonIBS-force   (target) :  0.941203E-02  ( 0.250000E-05)
 
++++++++++++++++++++++++++++++++++++++++++++++++++++++++++++++++++++++++++++++++
| SCF iteration number :    5                                                  +
++++++++++++++++++++++++++++++++++++++++++++++++++++++++++++++++++++++++++++++++
 Total energy                               :       -75.92670842
 _______________________________________________________________
 Fermi energy                               :         0.23344460
 Kinetic energy                             :        76.23410831
 Coulomb energy                             :      -141.33361410
 Exchange energy                            :       -10.40323615
 Correlation energy                         :        -0.42396647
 
 DOS at Fermi energy (states/Ha/cell)       :         1.10919159
 
 Electron charges :
     core                                   :         4.00000000
     core leakage                           :         0.00131977
     valence                                :         8.00000000
     interstitial                           :         4.69477907
     charge in muffin-tin spheres :
                  atom     1     C          :         3.65261047
                  atom     2     C          :         3.65261047
     total charge in muffin-tins            :         7.30522093
     total charge                           :        12.00000000
 
 Wall time (seconds)                        :       810.18
 
 RMS change in effective potential (target) :  0.336032E-01  ( 0.100000E-05)
 Absolute change in total energy   (target) :  0.866042      ( 0.100000E-06)
 Charge distance                   (target) :  0.135407E-01  ( 0.100000E-04)
 Abs. change in max-nonIBS-force   (target) :  0.833827E-02  ( 0.250000E-05)
 
++++++++++++++++++++++++++++++++++++++++++++++++++++++++++++++++++++++++++++++++
| SCF iteration number :    6                                                  +
++++++++++++++++++++++++++++++++++++++++++++++++++++++++++++++++++++++++++++++++
 Total energy                               :       -76.20527749
 _______________________________________________________________
 Fermi energy                               :         0.22645431
 Kinetic energy                             :        76.05427540
 Coulomb energy                             :      -141.41925889
 Exchange energy                            :       -10.41670253
 Correlation energy                         :        -0.42359146
 
 DOS at Fermi energy (states/Ha/cell)       :         1.07840565
 
 Electron charges :
     core                                   :         4.00000000
     core leakage                           :         0.00131343
     valence                                :         8.00000000
     interstitial                           :         4.67298821
     charge in muffin-tin spheres :
                  atom     1     C          :         3.66350590
                  atom     2     C          :         3.66350590
     total charge in muffin-tins            :         7.32701179
     total charge                           :        12.00000000
 
 Wall time (seconds)                        :       971.12
 
 RMS change in effective potential (target) :  0.683178E-03  ( 0.100000E-05)
 Absolute change in total energy   (target) :  0.278569      ( 0.100000E-06)
 Charge distance                   (target) :  0.445387E-02  ( 0.100000E-04)
 Abs. change in max-nonIBS-force   (target) :  0.345723E-02  ( 0.250000E-05)
 
++++++++++++++++++++++++++++++++++++++++++++++++++++++++++++++++++++++++++++++++
| SCF iteration number :    7                                                  +
++++++++++++++++++++++++++++++++++++++++++++++++++++++++++++++++++++++++++++++++
 Total energy                               :       -76.20528633
 _______________________________________________________________
 Fermi energy                               :         0.22645038
 Kinetic energy                             :        76.05461194
 Coulomb energy                             :      -141.41960826
 Exchange energy                            :       -10.41670038
 Correlation energy                         :        -0.42358963
 
 DOS at Fermi energy (states/Ha/cell)       :         1.07860114
 
 Electron charges :
     core                                   :         4.00000000
     core leakage                           :         0.00131333
     valence                                :         8.00000000
     interstitial                           :         4.67300979
     charge in muffin-tin spheres :
                  atom     1     C          :         3.66349511
                  atom     2     C          :         3.66349511
     total charge in muffin-tins            :         7.32699021
     total charge                           :        12.00000000
 
 Wall time (seconds)                        :      1132.38
 
 RMS change in effective potential (target) :  0.164705E-03  ( 0.100000E-05)
 Absolute change in total energy   (target) :  0.884483E-05  ( 0.100000E-06)
 Charge distance                   (target) :  0.258289E-04  ( 0.100000E-04)
 Abs. change in max-nonIBS-force   (target) :  0.524221E-04  ( 0.250000E-05)
 
++++++++++++++++++++++++++++++++++++++++++++++++++++++++++++++++++++++++++++++++
| SCF iteration number :    8                                                  +
++++++++++++++++++++++++++++++++++++++++++++++++++++++++++++++++++++++++++++++++
 Total energy                               :       -76.20616993
 _______________________________________________________________
 Fermi energy                               :         0.22642720
 Kinetic energy                             :        76.05395140
 Coulomb energy                             :      -141.41979217
 Exchange energy                            :       -10.41674031
 Correlation energy                         :        -0.42358886
 
 DOS at Fermi energy (states/Ha/cell)       :         1.07847531
 
 Electron charges :
     core                                   :         4.00000000
     core leakage                           :         0.00131332
     valence                                :         8.00000000
     interstitial                           :         4.67294106
     charge in muffin-tin spheres :
                  atom     1     C          :         3.66352947
                  atom     2     C          :         3.66352947
     total charge in muffin-tins            :         7.32705894
     total charge                           :        12.00000000
 
 Wall time (seconds)                        :      1293.45
 
 RMS change in effective potential (target) :  0.223308E-04  ( 0.100000E-05)
 Absolute change in total energy   (target) :  0.883601E-03  ( 0.100000E-06)
 Charge distance                   (target) :  0.160426E-04  ( 0.100000E-04)
 Abs. change in max-nonIBS-force   (target) :  0.160693E-04  ( 0.250000E-05)
 
++++++++++++++++++++++++++++++++++++++++++++++++++++++++++++++++++++++++++++++++
| SCF iteration number :    9                                                  +
++++++++++++++++++++++++++++++++++++++++++++++++++++++++++++++++++++++++++++++++
 Total energy                               :       -76.20605354
 _______________________________________________________________
 Fermi energy                               :         0.22643005
 Kinetic energy                             :        76.05402334
 Coulomb energy                             :      -141.41975316
 Exchange energy                            :       -10.41673470
 Correlation energy                         :        -0.42358902
 
 DOS at Fermi energy (states/Ha/cell)       :         1.07848645
 
 Electron charges :
     core                                   :         4.00000000
     core leakage                           :         0.00131333
     valence                                :         8.00000000
     interstitial                           :         4.67294994
     charge in muffin-tin spheres :
                  atom     1     C          :         3.66352503
                  atom     2     C          :         3.66352503
     total charge in muffin-tins            :         7.32705006
     total charge                           :        12.00000000
 
 Wall time (seconds)                        :      1455.69
 
 RMS change in effective potential (target) :  0.171342E-05  ( 0.100000E-05)
 Absolute change in total energy   (target) :  0.116389E-03  ( 0.100000E-06)
 Charge distance                   (target) :  0.178846E-05  ( 0.100000E-04)
 Abs. change in max-nonIBS-force   (target) :  0.197381E-05  ( 0.250000E-05)
 
++++++++++++++++++++++++++++++++++++++++++++++++++++++++++++++++++++++++++++++++
| SCF iteration number :   10                                                  +
++++++++++++++++++++++++++++++++++++++++++++++++++++++++++++++++++++++++++++++++
 Total energy                               :       -76.20605352
 _______________________________________________________________
 Fermi energy                               :         0.22643007
 Kinetic energy                             :        76.05402386
 Coulomb energy                             :      -141.41975364
 Exchange energy                            :       -10.41673471
 Correlation energy                         :        -0.42358902
 
 DOS at Fermi energy (states/Ha/cell)       :         1.07848636
 
 Electron charges :
     core                                   :         4.00000000
     core leakage                           :         0.00131333
     valence                                :         8.00000000
     interstitial                           :         4.67294996
     charge in muffin-tin spheres :
                  atom     1     C          :         3.66352502
                  atom     2     C          :         3.66352502
     total charge in muffin-tins            :         7.32705004
     total charge                           :        12.00000000
 
 Wall time (seconds)                        :      1618.42
 
 RMS change in effective potential (target) :  0.157512E-06  ( 0.100000E-05)
 Absolute change in total energy   (target) :  0.250500E-07  ( 0.100000E-06)
 Charge distance                   (target) :  0.183113E-06  ( 0.100000E-04)
 Abs. change in max-nonIBS-force   (target) :  0.228427E-05  ( 0.250000E-05)
 
++++++++++++++++++++++++++++++++++++++++++++++++++++++++++++++++++++++++++++++++
| Convergence targets achieved. Performing final SCF iteration                 +
++++++++++++++++++++++++++++++++++++++++++++++++++++++++++++++++++++++++++++++++
 Total energy                               :       -76.21455407
 _______________________________________________________________
 Fermi energy                               :         0.22643007
 Kinetic energy                             :        76.05402391
 Coulomb energy                             :      -141.41975370
 Exchange energy                            :       -10.41673472
 Correlation energy                         :        -0.42358902
 DFT-D2 dispersion correction               :        -0.00850055
 
 DOS at Fermi energy (states/Ha/cell)       :         1.07848644
 
 Electron charges :
     core                                   :         4.00000000
     core leakage                           :         0.00131333
     valence                                :         8.00000000
     interstitial                           :         4.67294995
     charge in muffin-tin spheres :
                  atom     1     C          :         3.66352502
                  atom     2     C          :         3.66352502
     total charge in muffin-tins            :         7.32705005
     total charge                           :        12.00000000
 
++++++++++++++++++++++++++++++++++++++++++++++++++++++++++++++++++++++++++++++++
| Self-consistent loop stopped                                                 +
++++++++++++++++++++++++++++++++++++++++++++++++++++++++++++++++++++++++++++++++
 STATE.OUT is written
 
--------------------------------------------------------------------------------
| Writing atomic positions and forces                                          -
--------------------------------------------------------------------------------
 
 Atomic positions (lattice) :
 atom     1   C  :     0.00000000    0.00000000    0.00000000
 atom     2   C  :     0.33333333    0.33333333    0.00000000
 
 Total atomic forces including IBS (cartesian) :
 atom     1   C  :     0.00000000   -0.00593334    0.00010842
 atom     2   C  :     0.00000000    0.00593334   -0.00010842
 
 Atomic force components including IBS (cartesian) :
 atom     1   C  :     0.00000000   -0.00092389   -0.00004657   HF force
                 :     0.00000000   -0.00500394    0.00014175   core correction
                 :     0.00000000   -0.00006296    0.00001429   IBS correction
                 :     0.00000000    0.00005745   -0.00000104   DFT-D2 force
 atom     2   C  :     0.00000000    0.00092389    0.00004657   HF force
                 :     0.00000000    0.00500394   -0.00014175   core correction
                 :     0.00000000    0.00006296   -0.00001429   IBS correction
                 :     0.00000000   -0.00005745    0.00000104   DFT-D2 force
 
********************************************************************************
| Groundstate module stopped                                                   *
********************************************************************************
 
********************************************************************************
| Structure-optimization module started                                        *
********************************************************************************
 Output level for this task is set to normal
 
 Maximum displacement tau_BFGS   is         :         0.3000
 Maximum displacement tau_newton is         :         0.8000
 
++++++++++++++++++++++++++++++++++++++++++++++++++++++++++++++++++++++++++++++++
| Use harmonic method for optimizing atomic positions                          +
++++++++++++++++++++++++++++++++++++++++++++++++++++++++++++++++++++++++++++++++
 
--------------------------------------------------------------------------------
| Optimization step 0: Initialize optimization                                 -
--------------------------------------------------------------------------------
 Maximum force magnitude           (target) :         0.00593433  (  0.00001000)
 Total energy at this optimization step     :       -76.21455407
 
 Atomic positions at this step (lattice) :
 atom     1   C  :     0.00000000    0.00000000    0.00000000
 atom     2   C  :     0.33333333    0.33333333    0.00000000
 
 Total atomic forces including IBS (cartesian) :
 atom     1   C  :     0.00000000   -0.00593334    0.00010842
 atom     2   C  :     0.00000000    0.00593334   -0.00010842
 
--------------------------------------------------------------------------------
| Optimization step    1    (method = harmonic)                                -
--------------------------------------------------------------------------------
 Number of scf iterations                   :        12  (full newton step)
 Maximum force magnitude           (target) :         0.00009610  (  0.00001000)
 Total energy at this optimization step     :       -76.21458216
 
 Atomic positions at this step (lattice) :
 atom     1   C  :     0.00000000    0.00000000    0.00000000
 atom     2   C  :     0.33453562    0.33453562    0.00000340
 
 Total atomic forces including IBS (cartesian) :
 atom     1   C  :     0.00000000   -0.00009574   -0.00000831
 atom     2   C  :     0.00000000    0.00009574    0.00000831
 
 Time spent in this optimization step       :      2114.17 seconds
 
--------------------------------------------------------------------------------
| Optimization step    2    (method = harmonic)                                -
--------------------------------------------------------------------------------
 Number of scf iterations                   :        11  (full harmonic step)
 Maximum force magnitude           (target) :         0.00000766  (  0.00001000)
 Total energy at this optimization step     :       -76.21458217
 
 Atomic positions at this step (lattice) :
 atom     1   C  :     0.00000000    0.00000000    0.00000000
 atom     2   C  :     0.33455538    0.33455538    0.00000577
 
 Total atomic forces including IBS (cartesian) :
 atom     1   C  :     0.00000000   -0.00000078   -0.00000762
 atom     2   C  :     0.00000000    0.00000078    0.00000762
 
 Time spent in this optimization step       :      1944.20 seconds
 
++++++++++++++++++++++++++++++++++++++++++++++++++++++++++++++++++++++++++++++++
| Force convergence target achieved                                            +
++++++++++++++++++++++++++++++++++++++++++++++++++++++++++++++++++++++++++++++++
 Total energy                               :       -76.21458217
 _______________________________________________________________
 Fermi energy                               :         0.22642848
 Kinetic energy                             :        76.05319990
 Coulomb energy                             :      -141.41909895
 Exchange energy                            :       -10.41659264
 Correlation energy                         :        -0.42359049
 DFT-D2 dispersion correction               :        -0.00850000
 
 DOS at Fermi energy (states/Ha/cell)       :         1.07641019
 
 Electron charges :
     core                                   :         4.00000000
     core leakage                           :         0.00131329
     valence                                :         8.00000000
     interstitial                           :         4.67336250
     charge in muffin-tin spheres :
                  atom     1     C          :         3.66331875
                  atom     2     C          :         3.66331875
     total charge in muffin-tins            :         7.32663750
     total charge                           :        12.00000000
 
 Optimized atomic positions (lattice) :
 atom     1   C  :     0.00000000    0.00000000    0.00000000
 atom     2   C  :     0.33455538    0.33455538    0.00000577
 
 Total atomic forces including IBS (cartesian) :
 atom     1   C  :     0.00000000   -0.00000078   -0.00000762
 atom     2   C  :     0.00000000    0.00000078    0.00000762
 
 Atomic force components including IBS (cartesian) :
 atom     1   C  :     0.00000000    0.00514077   -0.00016921   HF force
                 :     0.00000000   -0.00508353    0.00014645   core correction
                 :     0.00000000   -0.00011473    0.00001620   IBS correction
                 :     0.00000000    0.00005671   -0.00000107   DFT-D2 force
 atom     2   C  :     0.00000000   -0.00514077    0.00016921   HF force
                 :     0.00000000    0.00508353   -0.00014645   core correction
                 :     0.00000000    0.00011473   -0.00001620   IBS correction
                 :     0.00000000   -0.00005671    0.00000107   DFT-D2 force
 
********************************************************************************
| Structure-optimization module stopped                                        *
********************************************************************************
 
 Total time spent (seconds)                 :      5992.19
 
================================================================================
| EXCITING BORON stopped                                                       =
================================================================================
