================================================================================
| EXCITING BORON started                                                       =
| version hash id:                                                             =
| MPI version using     16 processor(s)                                        =
|                                                                              =
| Date (DD-MM-YYYY) : 12-08-2015                                               =
| Time (hh:mm:ss)   : 18:45:30                                                 =
|                                                                              =
| All units are atomic (Hartree, Bohr, etc.)                                   =
================================================================================
 
********************************************************************************
| Structural optimisation starting from atomic densities                       *
********************************************************************************
 
++++++++++++++++++++++++++++++++++++++++++++++++++++++++++++++++++++++++++++++++
| Starting initialization                                                      +
++++++++++++++++++++++++++++++++++++++++++++++++++++++++++++++++++++++++++++++++
 
 Lattice vectors (cartesian) :
      2.2747076963      3.9866861489      0.0000000000
     -2.3557275712      4.0334629955      0.0000000000
      0.0000000000      0.0000000000      6.6415374624
 
 Reciprocal lattice vectors (cartesian) :
      1.3649853859      0.7972141337      0.0000000000
     -1.3491553877      0.7697957725      0.0000000000
      0.0000000000      0.0000000000      0.9460437952
 
 Unit cell volume                           :     123.3100773847
 Brillouin zone volume                      :       2.0115972571
 
 Species :    1 (C)
     parameters loaded from                 :    C.xml
     name                                   :    carbon
     nuclear charge                         :      -6.00000000
     electronic charge                      :       6.00000000
     atomic mass                            :   21894.16673000
     muffin-tin radius                      :       1.20000000
     # of radial points in muffin-tin       :     250
 
     atomic positions (lattice) :
       1 :   0.00000000  0.00000000  0.00000000
       2 :   0.33333333  0.33333333  0.00000000
 
 Total number of atoms per unit cell        :       2
 
 Spin treatment                             :    spin-unpolarised
 
 Number of Bravais lattice symmetries       :       4
 Number of crystal symmetries               :       4
 
 k-point grid                               :      34   34   24
 Total number of k-points                   :    7540
 k-point set is reduced with crystal symmetries
 
 R^MT_min * |G+k|_max (rgkmax)              :       8.00000000
 Species with R^MT_min                      :       1 (C)
 Maximum |G+k| for APW functions            :       6.66666667
 Maximum |G| for potential and density      :      20.00000000
 
 G-vector grid sizes                        :      30    30    45
 Total number of G-vectors                  :   16651
 
 Maximum angular momentum used for
     APW functions                          :       8
     computing H and O matrix elements      :       8
     potential and density                  :       8
     inner part of muffin-tin               :       2
 
 Total nuclear charge                       :     -12.00000000
 Total electronic charge                    :      12.00000000
 Total core charge                          :       4.00000000
 Total valence charge                       :       8.00000000
 
 Number of empty states                     :       5
 Total number of valence states             :      10
 
 Maximum Hamiltonian size                   :     654
 Maximum number of plane-waves              :     646
 Total number of local-orbitals             :       8
 
 Exchange-correlation type                  :      20
     Perdew-Burke-Ernzerhof, Phys. Rev. Lett. 77, 3865 (1996)
     Generalised gradient approximation (GGA)
 
 Smearing scheme                            :    Gaussian
 Smearing width                             :       0.01000000
 
 Using multisecant Broyden potential mixing
 
++++++++++++++++++++++++++++++++++++++++++++++++++++++++++++++++++++++++++++++++
| Ending initialization                                                        +
++++++++++++++++++++++++++++++++++++++++++++++++++++++++++++++++++++++++++++++++
 
********************************************************************************
| Groundstate module started                                                   *
********************************************************************************
 Output level for this task is set to normal
 
++++++++++++++++++++++++++++++++++++++++++++++++++++++++++++++++++++++++++++++++
| Self-consistent loop started                                                 +
++++++++++++++++++++++++++++++++++++++++++++++++++++++++++++++++++++++++++++++++
 Density and potential initialised from atomic data
 
 
++++++++++++++++++++++++++++++++++++++++++++++++++++++++++++++++++++++++++++++++
| SCF iteration number :    1                                                  +
++++++++++++++++++++++++++++++++++++++++++++++++++++++++++++++++++++++++++++++++
 Total energy                               :       -78.43648449
 _______________________________________________________________
 Fermi energy                               :         0.15864225
 Kinetic energy                             :        74.48885587
 Coulomb energy                             :      -141.98973154
 Exchange energy                            :       -10.51581215
 Correlation energy                         :        -0.41979667
 
 DOS at Fermi energy (states/Ha/cell)       :         0.86497251
 
 Electron charges :
     core                                   :         4.00000000
     core leakage                           :         0.00128391
     valence                                :         8.00000000
     interstitial                           :         4.50804046
     charge in muffin-tin spheres :
                  atom     1     C          :         3.74597977
                  atom     2     C          :         3.74597977
     total charge in muffin-tins            :         7.49195954
     total charge                           :        12.00000000
 
 Wall time (seconds)                        :       182.40
 
++++++++++++++++++++++++++++++++++++++++++++++++++++++++++++++++++++++++++++++++
| SCF iteration number :    2                                                  +
++++++++++++++++++++++++++++++++++++++++++++++++++++++++++++++++++++++++++++++++
 Total energy                               :       -77.61716975
 _______________________________________________________________
 Fermi energy                               :         0.18165794
 Kinetic energy                             :        75.04809501
 Coulomb energy                             :      -141.76786224
 Exchange energy                            :       -10.47670796
 Correlation energy                         :        -0.42069456
 
 DOS at Fermi energy (states/Ha/cell)       :         0.92712933
 
 Electron charges :
     core                                   :         4.00000000
     core leakage                           :         0.00129671
     valence                                :         8.00000000
     interstitial                           :         4.57347588
     charge in muffin-tin spheres :
                  atom     1     C          :         3.71326206
                  atom     2     C          :         3.71326206
     total charge in muffin-tins            :         7.42652412
     total charge                           :        12.00000000
 
 Wall time (seconds)                        :       361.81
 
 RMS change in effective potential (target) :   1.61106      ( 0.100000E-05)
 Absolute change in total energy   (target) :  0.819315      ( 0.100000E-06)
 Charge distance                   (target) :  0.132586E-01  ( 0.100000E-04)
 Abs. change in max-nonIBS-force   (target) :  0.203469E-01  ( 0.250000E-05)
 
++++++++++++++++++++++++++++++++++++++++++++++++++++++++++++++++++++++++++++++++
| SCF iteration number :    3                                                  +
++++++++++++++++++++++++++++++++++++++++++++++++++++++++++++++++++++++++++++++++
 Total energy                               :       -77.03680744
 _______________________________________________________________
 Fermi energy                               :         0.19734650
 Kinetic energy                             :        75.44059965
 Coulomb energy                             :      -141.60764864
 Exchange energy                            :       -10.44835657
 Correlation energy                         :        -0.42140188
 
 DOS at Fermi energy (states/Ha/cell)       :         0.97783530
 
 Electron charges :
     core                                   :         4.00000000
     core leakage                           :         0.00130498
     valence                                :         8.00000000
     interstitial                           :         4.62117337
     charge in muffin-tin spheres :
                  atom     1     C          :         3.68941331
                  atom     2     C          :         3.68941331
     total charge in muffin-tins            :         7.37882663
     total charge                           :        12.00000000
 
 Wall time (seconds)                        :       541.00
 
 RMS change in effective potential (target) :   1.18920      ( 0.100000E-05)
 Absolute change in total energy   (target) :  0.580362      ( 0.100000E-06)
 Charge distance                   (target) :  0.977974E-02  ( 0.100000E-04)
 Abs. change in max-nonIBS-force   (target) :  0.949373E-02  ( 0.250000E-05)
 
++++++++++++++++++++++++++++++++++++++++++++++++++++++++++++++++++++++++++++++++
| SCF iteration number :    4                                                  +
++++++++++++++++++++++++++++++++++++++++++++++++++++++++++++++++++++++++++++++++
 Total energy                               :       -76.78529614
 _______________________________________________________________
 Fermi energy                               :         0.20340832
 Kinetic energy                             :        75.62544904
 Coulomb energy                             :      -141.55581722
 Exchange energy                            :       -10.43306310
 Correlation energy                         :        -0.42186486
 
 DOS at Fermi energy (states/Ha/cell)       :         1.01094210
 
 Electron charges :
     core                                   :         4.00000000
     core leakage                           :         0.00129727
     valence                                :         8.00000000
     interstitial                           :         4.65155020
     charge in muffin-tin spheres :
                  atom     1     C          :         3.67422490
                  atom     2     C          :         3.67422490
     total charge in muffin-tins            :         7.34844980
     total charge                           :        12.00000000
 
 Wall time (seconds)                        :       720.07
 
 RMS change in effective potential (target) :  0.689679E-01  ( 0.100000E-05)
 Absolute change in total energy   (target) :  0.251511      ( 0.100000E-06)
 Charge distance                   (target) :  0.674967E-02  ( 0.100000E-04)
 Abs. change in max-nonIBS-force   (target) :  0.104527E-01  ( 0.250000E-05)
 
++++++++++++++++++++++++++++++++++++++++++++++++++++++++++++++++++++++++++++++++
| SCF iteration number :    5                                                  +
++++++++++++++++++++++++++++++++++++++++++++++++++++++++++++++++++++++++++++++++
 Total energy                               :       -75.92720241
 _______________________________________________________________
 Fermi energy                               :         0.22555817
 Kinetic energy                             :        76.18137755
 Coulomb energy                             :      -141.29359173
 Exchange energy                            :       -10.39202324
 Correlation energy                         :        -0.42296498
 
 DOS at Fermi energy (states/Ha/cell)       :         1.09500949
 
 Electron charges :
     core                                   :         4.00000000
     core leakage                           :         0.00131743
     valence                                :         8.00000000
     interstitial                           :         4.71761885
     charge in muffin-tin spheres :
                  atom     1     C          :         3.64119057
                  atom     2     C          :         3.64119057
     total charge in muffin-tins            :         7.28238115
     total charge                           :        12.00000000
 
 Wall time (seconds)                        :       899.14
 
 RMS change in effective potential (target) :  0.333435E-01  ( 0.100000E-05)
 Absolute change in total energy   (target) :  0.858094      ( 0.100000E-06)
 Charge distance                   (target) :  0.134229E-01  ( 0.100000E-04)
 Abs. change in max-nonIBS-force   (target) :  0.798866E-02  ( 0.250000E-05)
 
++++++++++++++++++++++++++++++++++++++++++++++++++++++++++++++++++++++++++++++++
| SCF iteration number :    6                                                  +
++++++++++++++++++++++++++++++++++++++++++++++++++++++++++++++++++++++++++++++++
 Total energy                               :       -76.20575530
 _______________________________________________________________
 Fermi energy                               :         0.21850873
 Kinetic energy                             :        76.00122881
 Coulomb energy                             :      -141.37891714
 Exchange energy                            :       -10.40546698
 Correlation energy                         :        -0.42260000
 
 DOS at Fermi energy (states/Ha/cell)       :         1.06588497
 
 Electron charges :
     core                                   :         4.00000000
     core leakage                           :         0.00131113
     valence                                :         8.00000000
     interstitial                           :         4.69590646
     charge in muffin-tin spheres :
                  atom     1     C          :         3.65204677
                  atom     2     C          :         3.65204677
     total charge in muffin-tins            :         7.30409354
     total charge                           :        12.00000000
 
 Wall time (seconds)                        :      1078.35
 
 RMS change in effective potential (target) :  0.642634E-03  ( 0.100000E-05)
 Absolute change in total energy   (target) :  0.278553      ( 0.100000E-06)
 Charge distance                   (target) :  0.445229E-02  ( 0.100000E-04)
 Abs. change in max-nonIBS-force   (target) :  0.338820E-02  ( 0.250000E-05)
 
++++++++++++++++++++++++++++++++++++++++++++++++++++++++++++++++++++++++++++++++
| SCF iteration number :    7                                                  +
++++++++++++++++++++++++++++++++++++++++++++++++++++++++++++++++++++++++++++++++
 Total energy                               :       -76.20599477
 _______________________________________________________________
 Fermi energy                               :         0.21849967
 Kinetic energy                             :        76.00141723
 Coulomb energy                             :      -141.37933695
 Exchange energy                            :       -10.40547711
 Correlation energy                         :        -0.42259792
 
 DOS at Fermi energy (states/Ha/cell)       :         1.06603608
 
 Electron charges :
     core                                   :         4.00000000
     core leakage                           :         0.00131103
     valence                                :         8.00000000
     interstitial                           :         4.69590765
     charge in muffin-tin spheres :
                  atom     1     C          :         3.65204618
                  atom     2     C          :         3.65204618
     total charge in muffin-tins            :         7.30409235
     total charge                           :        12.00000000
 
 Wall time (seconds)                        :      1257.56
 
 RMS change in effective potential (target) :  0.171257E-03  ( 0.100000E-05)
 Absolute change in total energy   (target) :  0.239462E-03  ( 0.100000E-06)
 Charge distance                   (target) :  0.231795E-04  ( 0.100000E-04)
 Abs. change in max-nonIBS-force   (target) :  0.500120E-04  ( 0.250000E-05)
 
++++++++++++++++++++++++++++++++++++++++++++++++++++++++++++++++++++++++++++++++
| SCF iteration number :    8                                                  +
++++++++++++++++++++++++++++++++++++++++++++++++++++++++++++++++++++++++++++++++
 Total energy                               :       -76.20680591
 _______________________________________________________________
 Fermi energy                               :         0.21847816
 Kinetic energy                             :        76.00080456
 Coulomb energy                             :      -141.37949964
 Exchange energy                            :       -10.40551356
 Correlation energy                         :        -0.42259726
 
 DOS at Fermi energy (states/Ha/cell)       :         1.06592417
 
 Electron charges :
     core                                   :         4.00000000
     core leakage                           :         0.00131103
     valence                                :         8.00000000
     interstitial                           :         4.69584481
     charge in muffin-tin spheres :
                  atom     1     C          :         3.65207760
                  atom     2     C          :         3.65207760
     total charge in muffin-tins            :         7.30415519
     total charge                           :        12.00000000
 
 Wall time (seconds)                        :      1437.25
 
 RMS change in effective potential (target) :  0.241470E-04  ( 0.100000E-05)
 Absolute change in total energy   (target) :  0.811140E-03  ( 0.100000E-06)
 Charge distance                   (target) :  0.148653E-04  ( 0.100000E-04)
 Abs. change in max-nonIBS-force   (target) :  0.148609E-04  ( 0.250000E-05)
 
++++++++++++++++++++++++++++++++++++++++++++++++++++++++++++++++++++++++++++++++
| SCF iteration number :    9                                                  +
++++++++++++++++++++++++++++++++++++++++++++++++++++++++++++++++++++++++++++++++
 Total energy                               :       -76.20667301
 _______________________________________________________________
 Fermi energy                               :         0.21848146
 Kinetic energy                             :        76.00088771
 Coulomb energy                             :      -141.37945609
 Exchange energy                            :       -10.40550718
 Correlation energy                         :        -0.42259744
 
 DOS at Fermi energy (states/Ha/cell)       :         1.06593663
 
 Electron charges :
     core                                   :         4.00000000
     core leakage                           :         0.00131103
     valence                                :         8.00000000
     interstitial                           :         4.69585494
     charge in muffin-tin spheres :
                  atom     1     C          :         3.65207253
                  atom     2     C          :         3.65207253
     total charge in muffin-tins            :         7.30414506
     total charge                           :        12.00000000
 
 Wall time (seconds)                        :      1616.65
 
 RMS change in effective potential (target) :  0.173287E-05  ( 0.100000E-05)
 Absolute change in total energy   (target) :  0.132901E-03  ( 0.100000E-06)
 Charge distance                   (target) :  0.204482E-05  ( 0.100000E-04)
 Abs. change in max-nonIBS-force   (target) :  0.159476E-05  ( 0.250000E-05)
 
++++++++++++++++++++++++++++++++++++++++++++++++++++++++++++++++++++++++++++++++
| SCF iteration number :   10                                                  +
++++++++++++++++++++++++++++++++++++++++++++++++++++++++++++++++++++++++++++++++
 Total energy                               :       -76.20667344
 _______________________________________________________________
 Fermi energy                               :         0.21848147
 Kinetic energy                             :        76.00088792
 Coulomb energy                             :      -141.37945670
 Exchange energy                            :       -10.40550721
 Correlation energy                         :        -0.42259744
 
 DOS at Fermi energy (states/Ha/cell)       :         1.06593643
 
 Electron charges :
     core                                   :         4.00000000
     core leakage                           :         0.00131103
     valence                                :         8.00000000
     interstitial                           :         4.69585492
     charge in muffin-tin spheres :
                  atom     1     C          :         3.65207254
                  atom     2     C          :         3.65207254
     total charge in muffin-tins            :         7.30414508
     total charge                           :        12.00000000
 
 Wall time (seconds)                        :      1795.45
 
 RMS change in effective potential (target) :  0.112513E-06  ( 0.100000E-05)
 Absolute change in total energy   (target) :  0.431048E-06  ( 0.100000E-06)
 Charge distance                   (target) :  0.170850E-06  ( 0.100000E-04)
 Abs. change in max-nonIBS-force   (target) :  0.213709E-05  ( 0.250000E-05)
 
++++++++++++++++++++++++++++++++++++++++++++++++++++++++++++++++++++++++++++++++
| SCF iteration number :   11                                                  +
++++++++++++++++++++++++++++++++++++++++++++++++++++++++++++++++++++++++++++++++
 Total energy                               :       -76.20667346
 _______________________________________________________________
 Fermi energy                               :         0.21848147
 Kinetic energy                             :        76.00088793
 Coulomb energy                             :      -141.37945674
 Exchange energy                            :       -10.40550721
 Correlation energy                         :        -0.42259744
 
 DOS at Fermi energy (states/Ha/cell)       :         1.06593652
 
 Electron charges :
     core                                   :         4.00000000
     core leakage                           :         0.00131103
     valence                                :         8.00000000
     interstitial                           :         4.69585491
     charge in muffin-tin spheres :
                  atom     1     C          :         3.65207254
                  atom     2     C          :         3.65207254
     total charge in muffin-tins            :         7.30414509
     total charge                           :        12.00000000
 
 Wall time (seconds)                        :      1974.26
 
 RMS change in effective potential (target) :  0.623789E-08  ( 0.100000E-05)
 Absolute change in total energy   (target) :  0.259589E-07  ( 0.100000E-06)
 Charge distance                   (target) :  0.499371E-07  ( 0.100000E-04)
 Abs. change in max-nonIBS-force   (target) :  0.872475E-06  ( 0.250000E-05)
 
++++++++++++++++++++++++++++++++++++++++++++++++++++++++++++++++++++++++++++++++
| Convergence targets achieved. Performing final SCF iteration                 +
++++++++++++++++++++++++++++++++++++++++++++++++++++++++++++++++++++++++++++++++
 Total energy                               :       -76.21493708
 _______________________________________________________________
 Fermi energy                               :         0.21848147
 Kinetic energy                             :        76.00088792
 Coulomb energy                             :      -141.37945675
 Exchange energy                            :       -10.40550722
 Correlation energy                         :        -0.42259744
 DFT-D2 dispersion correction               :        -0.00826359
 
 DOS at Fermi energy (states/Ha/cell)       :         1.06593651
 
 Electron charges :
     core                                   :         4.00000000
     core leakage                           :         0.00131103
     valence                                :         8.00000000
     interstitial                           :         4.69585491
     charge in muffin-tin spheres :
                  atom     1     C          :         3.65207254
                  atom     2     C          :         3.65207254
     total charge in muffin-tins            :         7.30414509
     total charge                           :        12.00000000
 
++++++++++++++++++++++++++++++++++++++++++++++++++++++++++++++++++++++++++++++++
| Self-consistent loop stopped                                                 +
++++++++++++++++++++++++++++++++++++++++++++++++++++++++++++++++++++++++++++++++
 STATE.OUT is written
 
--------------------------------------------------------------------------------
| Writing atomic positions and forces                                          -
--------------------------------------------------------------------------------
 
 Atomic positions (lattice) :
 atom     1   C  :     0.00000000    0.00000000    0.00000000
 atom     2   C  :     0.33333333    0.33333333    0.00000000
 
 Total atomic forces including IBS (cartesian) :
 atom     1   C  :     0.00491882    0.00021040    0.00000000
 atom     2   C  :    -0.00491882   -0.00021040    0.00000000
 
 Atomic force components including IBS (cartesian) :
 atom     1   C  :    -0.00017959    0.00025925    0.00000000   HF force
                 :     0.00513850   -0.00000382    0.00000000   core correction
                 :     0.00002983   -0.00004955    0.00000000   IBS correction
                 :    -0.00006992    0.00000452    0.00000000   DFT-D2 force
 atom     2   C  :     0.00017959   -0.00025925    0.00000000   HF force
                 :    -0.00513850    0.00000382    0.00000000   core correction
                 :    -0.00002983    0.00004955    0.00000000   IBS correction
                 :     0.00006992   -0.00000452    0.00000000   DFT-D2 force
 
********************************************************************************
| Groundstate module stopped                                                   *
********************************************************************************
 
********************************************************************************
| Structure-optimization module started                                        *
********************************************************************************
 Output level for this task is set to normal
 
 Maximum displacement tau_BFGS   is         :         0.3000
 Maximum displacement tau_newton is         :         0.8000
 
++++++++++++++++++++++++++++++++++++++++++++++++++++++++++++++++++++++++++++++++
| Use harmonic method for optimizing atomic positions                          +
++++++++++++++++++++++++++++++++++++++++++++++++++++++++++++++++++++++++++++++++
 
--------------------------------------------------------------------------------
| Optimization step 0: Initialize optimization                                 -
--------------------------------------------------------------------------------
 Maximum force magnitude           (target) :         0.00492331  (  0.00001000)
 Total energy at this optimization step     :       -76.21493708
 
 Atomic positions at this step (lattice) :
 atom     1   C  :     0.00000000    0.00000000    0.00000000
 atom     2   C  :     0.33333333    0.33333333    0.00000000
 
 Total atomic forces including IBS (cartesian) :
 atom     1   C  :     0.00491882    0.00021040    0.00000000
 atom     2   C  :    -0.00491882   -0.00021040    0.00000000
 
--------------------------------------------------------------------------------
| Optimization step    1    (method = harmonic)                                -
--------------------------------------------------------------------------------
 Number of scf iterations                   :        13  (full newton step)
 Maximum force magnitude           (target) :         0.00036843  (  0.00001000)
 Total energy at this optimization step     :       -76.21495857
 
 Atomic positions at this step (lattice) :
 atom     1   C  :     0.00000000    0.00000000    0.00000000
 atom     2   C  :     0.33158088    0.33498199    0.00000000
 
 Total atomic forces including IBS (cartesian) :
 atom     1   C  :     0.00035704   -0.00009092    0.00000000
 atom     2   C  :    -0.00035704    0.00009092    0.00000000
 
 Time spent in this optimization step       :      2481.49 seconds
 
--------------------------------------------------------------------------------
| Optimization step    2    (method = harmonic)                                -
--------------------------------------------------------------------------------
 Number of scf iterations                   :        12  (full harmonic step)
 Maximum force magnitude           (target) :         0.00003865  (  0.00001000)
 Total energy at this optimization step     :       -76.21495874
 
 Atomic positions at this step (lattice) :
 atom     1   C  :     0.00000000    0.00000000    0.00000000
 atom     2   C  :     0.33145995    0.33512670    0.00000000
 
 Total atomic forces including IBS (cartesian) :
 atom     1   C  :     0.00000165   -0.00003861    0.00000000
 atom     2   C  :    -0.00000165    0.00003861    0.00000000
 
 Time spent in this optimization step       :      2293.11 seconds
 
--------------------------------------------------------------------------------
| Optimization step    3    (method = harmonic)                                -
--------------------------------------------------------------------------------
 Number of scf iterations                   :        10  (partial harmonic step)
 Maximum force magnitude           (target) :         0.00003280  (  0.00001000)
 Total energy at this optimization step     :       -76.21495876
 
 Atomic positions at this step (lattice) :
 atom     1   C  :     0.00000000    0.00000000    0.00000000
 atom     2   C  :     0.33147501    0.33514245    0.00000000
 
 Total atomic forces including IBS (cartesian) :
 atom     1   C  :     0.00000126    0.00003278    0.00000000
 atom     2   C  :    -0.00000126   -0.00003278    0.00000000
 
 Time spent in this optimization step       :      1925.68 seconds
 
--------------------------------------------------------------------------------
| Optimization step    4    (method = harmonic)                                -
--------------------------------------------------------------------------------
 Number of scf iterations                   :        10  (partial harmonic step)
 Maximum force magnitude           (target) :         0.00000165  (  0.00001000)
 Total energy at this optimization step     :       -76.21495874
 
 Atomic positions at this step (lattice) :
 atom     1   C  :     0.00000000    0.00000000    0.00000000
 atom     2   C  :     0.33146694    0.33513637    0.00000000
 
 Total atomic forces including IBS (cartesian) :
 atom     1   C  :    -0.00000165   -0.00000005    0.00000000
 atom     2   C  :     0.00000165    0.00000005    0.00000000
 
 Time spent in this optimization step       :      1930.83 seconds
 
++++++++++++++++++++++++++++++++++++++++++++++++++++++++++++++++++++++++++++++++
| Force convergence target achieved                                            +
++++++++++++++++++++++++++++++++++++++++++++++++++++++++++++++++++++++++++++++++
 Total energy                               :       -76.21495874
 _______________________________________________________________
 Fermi energy                               :         0.21848148
 Kinetic energy                             :        76.00017691
 Coulomb energy                             :      -141.37889013
 Exchange energy                            :       -10.40538397
 Correlation energy                         :        -0.42259856
 DFT-D2 dispersion correction               :        -0.00826299
 
 DOS at Fermi energy (states/Ha/cell)       :         1.06346725
 
 Electron charges :
     core                                   :         4.00000000
     core leakage                           :         0.00131100
     valence                                :         8.00000000
     interstitial                           :         4.69620987
     charge in muffin-tin spheres :
                  atom     1     C          :         3.65189507
                  atom     2     C          :         3.65189507
     total charge in muffin-tins            :         7.30379013
     total charge                           :        12.00000000
 
 Optimized atomic positions (lattice) :
 atom     1   C  :     0.00000000    0.00000000    0.00000000
 atom     2   C  :     0.33146694    0.33513637    0.00000000
 
 Total atomic forces including IBS (cartesian) :
 atom     1   C  :    -0.00000165   -0.00000005    0.00000000
 atom     2   C  :     0.00000165    0.00000005    0.00000000
 
 Atomic force components including IBS (cartesian) :
 atom     1   C  :    -0.00517104    0.00002946    0.00000000   HF force
                 :     0.00517237    0.00001075    0.00000000   core correction
                 :     0.00006947   -0.00004640    0.00000000   IBS correction
                 :    -0.00007246    0.00000613    0.00000000   DFT-D2 force
 atom     2   C  :     0.00517104   -0.00002946    0.00000000   HF force
                 :    -0.00517237   -0.00001075    0.00000000   core correction
                 :    -0.00006947    0.00004640    0.00000000   IBS correction
                 :     0.00007246   -0.00000613    0.00000000   DFT-D2 force
 
********************************************************************************
| Structure-optimization module stopped                                        *
********************************************************************************
 
 Total time spent (seconds)                 :     10938.34
 
================================================================================
| EXCITING BORON stopped                                                       =
================================================================================
