================================================================================
| EXCITING BORON started                                                       =
| version hash id:                                                             =
| MPI version using     16 processor(s)                                        =
|                                                                              =
| Date (DD-MM-YYYY) : 12-08-2015                                               =
| Time (hh:mm:ss)   : 18:53:05                                                 =
|                                                                              =
| All units are atomic (Hartree, Bohr, etc.)                                   =
================================================================================
 
********************************************************************************
| Structural optimisation starting from atomic densities                       *
********************************************************************************
 
++++++++++++++++++++++++++++++++++++++++++++++++++++++++++++++++++++++++++++++++
| Starting initialization                                                      +
++++++++++++++++++++++++++++++++++++++++++++++++++++++++++++++++++++++++++++++++
 
 Lattice vectors (cartesian) :
      2.8162899319      4.4323550713      0.0000000000
     -2.0444843168      3.9867528916      0.0000000000
      0.0000000000      0.0000000000      5.8818444396
 
 Reciprocal lattice vectors (cartesian) :
      1.2345903152      0.6331218929      0.0000000000
     -1.3725813445      0.8721293667      0.0000000000
      0.0000000000      0.0000000000      1.0682338460
 
 Unit cell volume                           :     119.3410500489
 Brillouin zone volume                      :       2.0784986670
 
 Species :    1 (C)
     parameters loaded from                 :    C.xml
     name                                   :    carbon
     nuclear charge                         :      -6.00000000
     electronic charge                      :       6.00000000
     atomic mass                            :   21894.16673000
     muffin-tin radius                      :       1.20000000
     # of radial points in muffin-tin       :     250
 
     atomic positions (lattice) :
       1 :   0.00000000  0.00000000  0.00000000
       2 :   0.33333333  0.33333333  0.00000000
 
 Total number of atoms per unit cell        :       2
 
 Spin treatment                             :    spin-unpolarised
 
 Number of Bravais lattice symmetries       :       4
 Number of crystal symmetries               :       4
 
 k-point grid                               :      34   34   24
 Total number of k-points                   :    7540
 k-point set is reduced with crystal symmetries
 
 R^MT_min * |G+k|_max (rgkmax)              :       8.00000000
 Species with R^MT_min                      :       1 (C)
 Maximum |G+k| for APW functions            :       6.66666667
 Maximum |G| for potential and density      :      20.00000000
 
 G-vector grid sizes                        :      36    30    40
 Total number of G-vectors                  :   16143
 
 Maximum angular momentum used for
     APW functions                          :       8
     computing H and O matrix elements      :       8
     potential and density                  :       8
     inner part of muffin-tin               :       2
 
 Total nuclear charge                       :     -12.00000000
 Total electronic charge                    :      12.00000000
 Total core charge                          :       4.00000000
 Total valence charge                       :       8.00000000
 
 Number of empty states                     :       5
 Total number of valence states             :      10
 
 Maximum Hamiltonian size                   :     621
 Maximum number of plane-waves              :     613
 Total number of local-orbitals             :       8
 
 Exchange-correlation type                  :      20
     Perdew-Burke-Ernzerhof, Phys. Rev. Lett. 77, 3865 (1996)
     Generalised gradient approximation (GGA)
 
 Smearing scheme                            :    Gaussian
 Smearing width                             :       0.01000000
 
 Using multisecant Broyden potential mixing
 
++++++++++++++++++++++++++++++++++++++++++++++++++++++++++++++++++++++++++++++++
| Ending initialization                                                        +
++++++++++++++++++++++++++++++++++++++++++++++++++++++++++++++++++++++++++++++++
 
********************************************************************************
| Groundstate module started                                                   *
********************************************************************************
 Output level for this task is set to normal
 
++++++++++++++++++++++++++++++++++++++++++++++++++++++++++++++++++++++++++++++++
| Self-consistent loop started                                                 +
++++++++++++++++++++++++++++++++++++++++++++++++++++++++++++++++++++++++++++++++
 Density and potential initialised from atomic data
 
 
++++++++++++++++++++++++++++++++++++++++++++++++++++++++++++++++++++++++++++++++
| SCF iteration number :    1                                                  +
++++++++++++++++++++++++++++++++++++++++++++++++++++++++++++++++++++++++++++++++
 Total energy                               :       -77.82329158
 _______________________________________________________________
 Fermi energy                               :         0.19801551
 Kinetic energy                             :        74.61482335
 Coulomb energy                             :      -141.60885391
 Exchange energy                            :       -10.41401630
 Correlation energy                         :        -0.41524472
 
 DOS at Fermi energy (states/Ha/cell)       :         3.27492330
 
 Electron charges :
     core                                   :         4.00000000
     core leakage                           :         0.00127625
     valence                                :         8.00000000
     interstitial                           :         4.69750152
     charge in muffin-tin spheres :
                  atom     1     C          :         3.65124924
                  atom     2     C          :         3.65124924
     total charge in muffin-tins            :         7.30249848
     total charge                           :        12.00000000
 
 Wall time (seconds)                        :       172.82
 
++++++++++++++++++++++++++++++++++++++++++++++++++++++++++++++++++++++++++++++++
| SCF iteration number :    2                                                  +
++++++++++++++++++++++++++++++++++++++++++++++++++++++++++++++++++++++++++++++++
 Total energy                               :       -77.21051034
 _______________________________________________________________
 Fermi energy                               :         0.21440260
 Kinetic energy                             :        75.01095989
 Coulomb energy                             :      -141.42390540
 Exchange energy                            :       -10.38124426
 Correlation energy                         :        -0.41632057
 
 DOS at Fermi energy (states/Ha/cell)       :         3.41581190
 
 Electron charges :
     core                                   :         4.00000000
     core leakage                           :         0.00128607
     valence                                :         8.00000000
     interstitial                           :         4.75194981
     charge in muffin-tin spheres :
                  atom     1     C          :         3.62402510
                  atom     2     C          :         3.62402510
     total charge in muffin-tins            :         7.24805019
     total charge                           :        12.00000000
 
 Wall time (seconds)                        :       341.82
 
 RMS change in effective potential (target) :   1.56920      ( 0.100000E-05)
 Absolute change in total energy   (target) :  0.612781      ( 0.100000E-06)
 Charge distance                   (target) :  0.117731E-01  ( 0.100000E-04)
 Abs. change in max-nonIBS-force   (target) :  0.198380      ( 0.250000E-05)
 
++++++++++++++++++++++++++++++++++++++++++++++++++++++++++++++++++++++++++++++++
| SCF iteration number :    3                                                  +
++++++++++++++++++++++++++++++++++++++++++++++++++++++++++++++++++++++++++++++++
 Total energy                               :       -76.78092695
 _______________________________________________________________
 Fermi energy                               :         0.22549680
 Kinetic energy                             :        75.28668196
 Coulomb energy                             :      -141.29257665
 Exchange energy                            :       -10.35789368
 Correlation energy                         :        -0.41713858
 
 DOS at Fermi energy (states/Ha/cell)       :         3.54932271
 
 Electron charges :
     core                                   :         4.00000000
     core leakage                           :         0.00129226
     valence                                :         8.00000000
     interstitial                           :         4.79123263
     charge in muffin-tin spheres :
                  atom     1     C          :         3.60438368
                  atom     2     C          :         3.60438368
     total charge in muffin-tins            :         7.20876737
     total charge                           :        12.00000000
 
 Wall time (seconds)                        :       511.02
 
 RMS change in effective potential (target) :   1.15632      ( 0.100000E-05)
 Absolute change in total energy   (target) :  0.429583      ( 0.100000E-06)
 Charge distance                   (target) :  0.855879E-02  ( 0.100000E-04)
 Abs. change in max-nonIBS-force   (target) :  0.759924E-01  ( 0.250000E-05)
 
++++++++++++++++++++++++++++++++++++++++++++++++++++++++++++++++++++++++++++++++
| SCF iteration number :    4                                                  +
++++++++++++++++++++++++++++++++++++++++++++++++++++++++++++++++++++++++++++++++
 Total energy                               :       -76.60351960
 _______________________________________________________________
 Fermi energy                               :         0.22962341
 Kinetic energy                             :        75.41500798
 Coulomb energy                             :      -141.25518828
 Exchange energy                            :       -10.34571559
 Correlation energy                         :        -0.41762370
 
 DOS at Fermi energy (states/Ha/cell)       :         3.66299728
 
 Electron charges :
     core                                   :         4.00000000
     core leakage                           :         0.00128467
     valence                                :         8.00000000
     interstitial                           :         4.81548299
     charge in muffin-tin spheres :
                  atom     1     C          :         3.59225851
                  atom     2     C          :         3.59225851
     total charge in muffin-tins            :         7.18451701
     total charge                           :        12.00000000
 
 Wall time (seconds)                        :       680.47
 
 RMS change in effective potential (target) :  0.555885E-01  ( 0.100000E-05)
 Absolute change in total energy   (target) :  0.177407      ( 0.100000E-06)
 Charge distance                   (target) :  0.580085E-02  ( 0.100000E-04)
 Abs. change in max-nonIBS-force   (target) :  0.906089E-01  ( 0.250000E-05)
 
++++++++++++++++++++++++++++++++++++++++++++++++++++++++++++++++++++++++++++++++
| SCF iteration number :    5                                                  +
++++++++++++++++++++++++++++++++++++++++++++++++++++++++++++++++++++++++++++++++
 Total energy                               :       -75.94055750
 _______________________________________________________________
 Fermi energy                               :         0.24566109
 Kinetic energy                             :        75.81820286
 Coulomb energy                             :      -141.02911904
 Exchange energy                            :       -10.31071737
 Correlation energy                         :        -0.41892396
 
 DOS at Fermi energy (states/Ha/cell)       :         4.16545312
 
 Electron charges :
     core                                   :         4.00000000
     core leakage                           :         0.00130172
     valence                                :         8.00000000
     interstitial                           :         4.87222360
     charge in muffin-tin spheres :
                  atom     1     C          :         3.56388820
                  atom     2     C          :         3.56388820
     total charge in muffin-tins            :         7.12777640
     total charge                           :        12.00000000
 
 Wall time (seconds)                        :       849.31
 
 RMS change in effective potential (target) :  0.305490E-01  ( 0.100000E-05)
 Absolute change in total energy   (target) :  0.662962      ( 0.100000E-06)
 Charge distance                   (target) :  0.122907E-01  ( 0.100000E-04)
 Abs. change in max-nonIBS-force   (target) :  0.103500E-01  ( 0.250000E-05)
 
++++++++++++++++++++++++++++++++++++++++++++++++++++++++++++++++++++++++++++++++
| SCF iteration number :    6                                                  +
++++++++++++++++++++++++++++++++++++++++++++++++++++++++++++++++++++++++++++++++
 Total energy                               :       -76.16644355
 _______________________________________________________________
 Fermi energy                               :         0.24041573
 Kinetic energy                             :        75.68194839
 Coulomb energy                             :      -141.10712374
 Exchange energy                            :       -10.32280159
 Correlation energy                         :        -0.41846661
 
 DOS at Fermi energy (states/Ha/cell)       :         3.94558970
 
 Electron charges :
     core                                   :         4.00000000
     core leakage                           :         0.00129598
     valence                                :         8.00000000
     interstitial                           :         4.85260620
     charge in muffin-tin spheres :
                  atom     1     C          :         3.57369690
                  atom     2     C          :         3.57369690
     total charge in muffin-tins            :         7.14739380
     total charge                           :        12.00000000
 
 Wall time (seconds)                        :      1018.80
 
 RMS change in effective potential (target) :  0.562140E-03  ( 0.100000E-05)
 Absolute change in total energy   (target) :  0.225886      ( 0.100000E-06)
 Charge distance                   (target) :  0.428108E-02  ( 0.100000E-04)
 Abs. change in max-nonIBS-force   (target) :  0.253541E-01  ( 0.250000E-05)
 
++++++++++++++++++++++++++++++++++++++++++++++++++++++++++++++++++++++++++++++++
| SCF iteration number :    7                                                  +
++++++++++++++++++++++++++++++++++++++++++++++++++++++++++++++++++++++++++++++++
 Total energy                               :       -76.16926910
 _______________________________________________________________
 Fermi energy                               :         0.24034423
 Kinetic energy                             :        75.68028853
 Coulomb energy                             :      -141.10815899
 Exchange energy                            :       -10.32293741
 Correlation energy                         :        -0.41846122
 
 DOS at Fermi energy (states/Ha/cell)       :         3.94407808
 
 Electron charges :
     core                                   :         4.00000000
     core leakage                           :         0.00129586
     valence                                :         8.00000000
     interstitial                           :         4.85239357
     charge in muffin-tin spheres :
                  atom     1     C          :         3.57380321
                  atom     2     C          :         3.57380321
     total charge in muffin-tins            :         7.14760643
     total charge                           :        12.00000000
 
 Wall time (seconds)                        :      1188.23
 
 RMS change in effective potential (target) :  0.100578E-03  ( 0.100000E-05)
 Absolute change in total energy   (target) :  0.282555E-02  ( 0.100000E-06)
 Charge distance                   (target) :  0.497527E-04  ( 0.100000E-04)
 Abs. change in max-nonIBS-force   (target) :  0.365633E-03  ( 0.250000E-05)
 
++++++++++++++++++++++++++++++++++++++++++++++++++++++++++++++++++++++++++++++++
| SCF iteration number :    8                                                  +
++++++++++++++++++++++++++++++++++++++++++++++++++++++++++++++++++++++++++++++++
 Total energy                               :       -76.16941348
 _______________________________________________________________
 Fermi energy                               :         0.24034030
 Kinetic energy                             :        75.68017266
 Coulomb energy                             :      -141.10818003
 Exchange energy                            :       -10.32294513
 Correlation energy                         :        -0.41846098
 
 DOS at Fermi energy (states/Ha/cell)       :         3.94380655
 
 Electron charges :
     core                                   :         4.00000000
     core leakage                           :         0.00129586
     valence                                :         8.00000000
     interstitial                           :         4.85237906
     charge in muffin-tin spheres :
                  atom     1     C          :         3.57381047
                  atom     2     C          :         3.57381047
     total charge in muffin-tins            :         7.14762094
     total charge                           :        12.00000000
 
 Wall time (seconds)                        :      1357.36
 
 RMS change in effective potential (target) :  0.125601E-04  ( 0.100000E-05)
 Absolute change in total energy   (target) :  0.144378E-03  ( 0.100000E-06)
 Charge distance                   (target) :  0.109548E-04  ( 0.100000E-04)
 Abs. change in max-nonIBS-force   (target) :  0.106781E-03  ( 0.250000E-05)
 
++++++++++++++++++++++++++++++++++++++++++++++++++++++++++++++++++++++++++++++++
| SCF iteration number :    9                                                  +
++++++++++++++++++++++++++++++++++++++++++++++++++++++++++++++++++++++++++++++++
 Total energy                               :       -76.16933400
 _______________________________________________________________
 Fermi energy                               :         0.24034212
 Kinetic energy                             :        75.68021995
 Coulomb energy                             :      -141.10815186
 Exchange energy                            :       -10.32294096
 Correlation energy                         :        -0.41846113
 
 DOS at Fermi energy (states/Ha/cell)       :         3.94388659
 
 Electron charges :
     core                                   :         4.00000000
     core leakage                           :         0.00129587
     valence                                :         8.00000000
     interstitial                           :         4.85238568
     charge in muffin-tin spheres :
                  atom     1     C          :         3.57380716
                  atom     2     C          :         3.57380716
     total charge in muffin-tins            :         7.14761432
     total charge                           :        12.00000000
 
 Wall time (seconds)                        :      1526.47
 
 RMS change in effective potential (target) :  0.279882E-05  ( 0.100000E-05)
 Absolute change in total energy   (target) :  0.794824E-04  ( 0.100000E-06)
 Charge distance                   (target) :  0.260469E-05  ( 0.100000E-04)
 Abs. change in max-nonIBS-force   (target) :  0.194228E-04  ( 0.250000E-05)
 
++++++++++++++++++++++++++++++++++++++++++++++++++++++++++++++++++++++++++++++++
| SCF iteration number :   10                                                  +
++++++++++++++++++++++++++++++++++++++++++++++++++++++++++++++++++++++++++++++++
 Total energy                               :       -76.16932222
 _______________________________________________________________
 Fermi energy                               :         0.24034242
 Kinetic energy                             :        75.68022821
 Coulomb energy                             :      -141.10814892
 Exchange energy                            :       -10.32294035
 Correlation energy                         :        -0.41846115
 
 DOS at Fermi energy (states/Ha/cell)       :         3.94389552
 
 Electron charges :
     core                                   :         4.00000000
     core leakage                           :         0.00129587
     valence                                :         8.00000000
     interstitial                           :         4.85238676
     charge in muffin-tin spheres :
                  atom     1     C          :         3.57380662
                  atom     2     C          :         3.57380662
     total charge in muffin-tins            :         7.14761324
     total charge                           :        12.00000000
 
 Wall time (seconds)                        :      1695.65
 
 RMS change in effective potential (target) :  0.613719E-07  ( 0.100000E-05)
 Absolute change in total energy   (target) :  0.117810E-04  ( 0.100000E-06)
 Charge distance                   (target) :  0.371094E-06  ( 0.100000E-04)
 Abs. change in max-nonIBS-force   (target) :  0.395499E-05  ( 0.250000E-05)
 
++++++++++++++++++++++++++++++++++++++++++++++++++++++++++++++++++++++++++++++++
| SCF iteration number :   11                                                  +
++++++++++++++++++++++++++++++++++++++++++++++++++++++++++++++++++++++++++++++++
 Total energy                               :       -76.16932267
 _______________________________________________________________
 Fermi energy                               :         0.24034242
 Kinetic energy                             :        75.68022792
 Coulomb energy                             :      -141.10814907
 Exchange energy                            :       -10.32294038
 Correlation energy                         :        -0.41846115
 
 DOS at Fermi energy (states/Ha/cell)       :         3.94389544
 
 Electron charges :
     core                                   :         4.00000000
     core leakage                           :         0.00129587
     valence                                :         8.00000000
     interstitial                           :         4.85238672
     charge in muffin-tin spheres :
                  atom     1     C          :         3.57380664
                  atom     2     C          :         3.57380664
     total charge in muffin-tins            :         7.14761328
     total charge                           :        12.00000000
 
 Wall time (seconds)                        :      1864.59
 
 RMS change in effective potential (target) :  0.325230E-07  ( 0.100000E-05)
 Absolute change in total energy   (target) :  0.458030E-06  ( 0.100000E-06)
 Charge distance                   (target) :  0.170457E-07  ( 0.100000E-04)
 Abs. change in max-nonIBS-force   (target) :  0.786684E-07  ( 0.250000E-05)
 
++++++++++++++++++++++++++++++++++++++++++++++++++++++++++++++++++++++++++++++++
| SCF iteration number :   12                                                  +
++++++++++++++++++++++++++++++++++++++++++++++++++++++++++++++++++++++++++++++++
 Total energy                               :       -76.16932270
 _______________________________________________________________
 Fermi energy                               :         0.24034242
 Kinetic energy                             :        75.68022791
 Coulomb energy                             :      -141.10814908
 Exchange energy                            :       -10.32294038
 Correlation energy                         :        -0.41846115
 
 DOS at Fermi energy (states/Ha/cell)       :         3.94389526
 
 Electron charges :
     core                                   :         4.00000000
     core leakage                           :         0.00129587
     valence                                :         8.00000000
     interstitial                           :         4.85238672
     charge in muffin-tin spheres :
                  atom     1     C          :         3.57380664
                  atom     2     C          :         3.57380664
     total charge in muffin-tins            :         7.14761328
     total charge                           :        12.00000000
 
 Wall time (seconds)                        :      2033.42
 
 RMS change in effective potential (target) :  0.201985E-07  ( 0.100000E-05)
 Absolute change in total energy   (target) :  0.211307E-07  ( 0.100000E-06)
 Charge distance                   (target) :  0.617384E-08  ( 0.100000E-04)
 Abs. change in max-nonIBS-force   (target) :  0.425540E-07  ( 0.250000E-05)
 
++++++++++++++++++++++++++++++++++++++++++++++++++++++++++++++++++++++++++++++++
| Convergence targets achieved. Performing final SCF iteration                 +
++++++++++++++++++++++++++++++++++++++++++++++++++++++++++++++++++++++++++++++++
 Total energy                               :       -76.17959028
 _______________________________________________________________
 Fermi energy                               :         0.24034242
 Kinetic energy                             :        75.68022790
 Coulomb energy                             :      -141.10814909
 Exchange energy                            :       -10.32294038
 Correlation energy                         :        -0.41846115
 DFT-D2 dispersion correction               :        -0.01026756
 
 DOS at Fermi energy (states/Ha/cell)       :         3.94389528
 
 Electron charges :
     core                                   :         4.00000000
     core leakage                           :         0.00129587
     valence                                :         8.00000000
     interstitial                           :         4.85238672
     charge in muffin-tin spheres :
                  atom     1     C          :         3.57380664
                  atom     2     C          :         3.57380664
     total charge in muffin-tins            :         7.14761328
     total charge                           :        12.00000000
 
++++++++++++++++++++++++++++++++++++++++++++++++++++++++++++++++++++++++++++++++
| Self-consistent loop stopped                                                 +
++++++++++++++++++++++++++++++++++++++++++++++++++++++++++++++++++++++++++++++++
 STATE.OUT is written
 
--------------------------------------------------------------------------------
| Writing atomic positions and forces                                          -
--------------------------------------------------------------------------------
 
 Atomic positions (lattice) :
 atom     1   C  :     0.00000000    0.00000000    0.00000000
 atom     2   C  :     0.33333333    0.33333333    0.00000000
 
 Total atomic forces including IBS (cartesian) :
 atom     1   C  :    -0.00727147    0.01444683    0.00000000
 atom     2   C  :     0.00727147   -0.01444683    0.00000000
 
 Atomic force components including IBS (cartesian) :
 atom     1   C  :     0.04561064    0.01413240    0.00000000   HF force
                 :    -0.05293070    0.00065458    0.00000000   core correction
                 :    -0.00070003   -0.00037323    0.00000000   IBS correction
                 :     0.00074862    0.00003308    0.00000000   DFT-D2 force
 atom     2   C  :    -0.04561064   -0.01413240    0.00000000   HF force
                 :     0.05293070   -0.00065458    0.00000000   core correction
                 :     0.00070003    0.00037323    0.00000000   IBS correction
                 :    -0.00074862   -0.00003308    0.00000000   DFT-D2 force
 
********************************************************************************
| Groundstate module stopped                                                   *
********************************************************************************
 
********************************************************************************
| Structure-optimization module started                                        *
********************************************************************************
 Output level for this task is set to normal
 
 Maximum displacement tau_BFGS   is         :         0.3000
 Maximum displacement tau_newton is         :         0.8000
 
++++++++++++++++++++++++++++++++++++++++++++++++++++++++++++++++++++++++++++++++
| Use harmonic method for optimizing atomic positions                          +
++++++++++++++++++++++++++++++++++++++++++++++++++++++++++++++++++++++++++++++++
 
--------------------------------------------------------------------------------
| Optimization step 0: Initialize optimization                                 -
--------------------------------------------------------------------------------
 Maximum force magnitude           (target) :         0.01617360  (  0.00001000)
 Total energy at this optimization step     :       -76.17959028
 
 Atomic positions at this step (lattice) :
 atom     1   C  :     0.00000000    0.00000000    0.00000000
 atom     2   C  :     0.33333333    0.33333333    0.00000000
 
 Total atomic forces including IBS (cartesian) :
 atom     1   C  :    -0.00727147    0.01444683    0.00000000
 atom     2   C  :     0.00727147   -0.01444683    0.00000000
 
--------------------------------------------------------------------------------
| Optimization step    1    (method = harmonic)                                -
--------------------------------------------------------------------------------
 Number of scf iterations                   :        13  (full newton step)
 Maximum force magnitude           (target) :         0.00482813  (  0.00001000)
 Total energy at this optimization step     :       -76.17984794
 
 Atomic positions at this step (lattice) :
 atom     1   C  :     0.00000000    0.00000000    0.00000000
 atom     2   C  :     0.33329021    0.32758333    0.00000000
 
 Total atomic forces including IBS (cartesian) :
 atom     1   C  :     0.00020078    0.00482396    0.00000000
 atom     2   C  :    -0.00020078   -0.00482396    0.00000000
 
 Time spent in this optimization step       :      2355.92 seconds
 
--------------------------------------------------------------------------------
| Optimization step    2    (method = harmonic)                                -
--------------------------------------------------------------------------------
 Number of scf iterations                   :        14  (partial harmonic step)
 Maximum force magnitude           (target) :         0.00437586  (  0.00001000)
 Total energy at this optimization step     :       -76.17986135
 
 Atomic positions at this step (lattice) :
 atom     1   C  :     0.00000000    0.00000000    0.00000000
 atom     2   C  :     0.33089559    0.32443762    0.00000000
 
 Total atomic forces including IBS (cartesian) :
 atom     1   C  :     0.00230396   -0.00372021    0.00000000
 atom     2   C  :    -0.00230396    0.00372021    0.00000000
 
 Time spent in this optimization step       :      2526.96 seconds
 
--------------------------------------------------------------------------------
| Optimization step    3    (method = harmonic)                                -
--------------------------------------------------------------------------------
 Number of scf iterations                   :        13  (partial harmonic step)
 Maximum force magnitude           (target) :         0.00196168  (  0.00001000)
 Total energy at this optimization step     :       -76.17988213
 
 Atomic positions at this step (lattice) :
 atom     1   C  :     0.00000000    0.00000000    0.00000000
 atom     2   C  :     0.33046282    0.32744761    0.00000000
 
 Total atomic forces including IBS (cartesian) :
 atom     1   C  :    -0.00181130    0.00075324    0.00000000
 atom     2   C  :     0.00181130   -0.00075324    0.00000000
 
 Time spent in this optimization step       :      2353.79 seconds
 
--------------------------------------------------------------------------------
| Optimization step    4    (method = harmonic)                                -
--------------------------------------------------------------------------------
 Number of scf iterations                   :        12  (full harmonic step)
 Maximum force magnitude           (target) :         0.00032212  (  0.00001000)
 Total energy at this optimization step     :       -76.17988449
 
 Atomic positions at this step (lattice) :
 atom     1   C  :     0.00000000    0.00000000    0.00000000
 atom     2   C  :     0.33092938    0.32650309    0.00000000
 
 Total atomic forces including IBS (cartesian) :
 atom     1   C  :    -0.00025469   -0.00019721    0.00000000
 atom     2   C  :     0.00025469    0.00019721    0.00000000
 
 Time spent in this optimization step       :      2181.56 seconds
 
--------------------------------------------------------------------------------
| Optimization step    5    (method = harmonic)                                -
--------------------------------------------------------------------------------
 Number of scf iterations                   :        11  (full harmonic step)
 Maximum force magnitude           (target) :         0.00013334  (  0.00001000)
 Total energy at this optimization step     :       -76.17988442
 
 Atomic positions at this step (lattice) :
 atom     1   C  :     0.00000000    0.00000000    0.00000000
 atom     2   C  :     0.33106920    0.32643599    0.00000000
 
 Total atomic forces including IBS (cartesian) :
 atom     1   C  :    -0.00006224   -0.00011792    0.00000000
 atom     2   C  :     0.00006224    0.00011792    0.00000000
 
 Time spent in this optimization step       :      2008.21 seconds
 
--------------------------------------------------------------------------------
| Optimization step    6    (method = harmonic)                                -
--------------------------------------------------------------------------------
 Number of scf iterations                   :        11  (partial harmonic step)
 Maximum force magnitude           (target) :         0.00002626  (  0.00001000)
 Total energy at this optimization step     :       -76.17988438
 
 Atomic positions at this step (lattice) :
 atom     1   C  :     0.00000000    0.00000000    0.00000000
 atom     2   C  :     0.33114096    0.32645086    0.00000000
 
 Total atomic forces including IBS (cartesian) :
 atom     1   C  :    -0.00002564    0.00000564    0.00000000
 atom     2   C  :     0.00002564   -0.00000564    0.00000000
 
 Time spent in this optimization step       :      2004.67 seconds
 
--------------------------------------------------------------------------------
| Optimization step    7    (method = harmonic)                                -
--------------------------------------------------------------------------------
 Number of scf iterations                   :        11  (partial harmonic step)
 Maximum force magnitude           (target) :         0.00001412  (  0.00001000)
 Total energy at this optimization step     :       -76.17988435
 
 Atomic positions at this step (lattice) :
 atom     1   C  :     0.00000000    0.00000000    0.00000000
 atom     2   C  :     0.33115535    0.32643054    0.00000000
 
 Total atomic forces including IBS (cartesian) :
 atom     1   C  :     0.00001108   -0.00000876    0.00000000
 atom     2   C  :    -0.00001108    0.00000876    0.00000000
 
 Time spent in this optimization step       :      2005.31 seconds
 
--------------------------------------------------------------------------------
| Optimization step    8    (method = harmonic)                                -
--------------------------------------------------------------------------------
 Number of scf iterations                   :        10  (full harmonic step)
 Maximum force magnitude           (target) :         0.00000250  (  0.00001000)
 Total energy at this optimization step     :       -76.17988437
 
 Atomic positions at this step (lattice) :
 atom     1   C  :     0.00000000    0.00000000    0.00000000
 atom     2   C  :     0.33115154    0.32643741    0.00000000
 
 Total atomic forces including IBS (cartesian) :
 atom     1   C  :    -0.00000051   -0.00000245    0.00000000
 atom     2   C  :     0.00000051    0.00000245    0.00000000
 
 Time spent in this optimization step       :      1832.88 seconds
 
++++++++++++++++++++++++++++++++++++++++++++++++++++++++++++++++++++++++++++++++
| Force convergence target achieved                                            +
++++++++++++++++++++++++++++++++++++++++++++++++++++++++++++++++++++++++++++++++
 Total energy                               :       -76.17988437
 _______________________________________________________________
 Fermi energy                               :         0.24004683
 Kinetic energy                             :        75.67370079
 Coulomb energy                             :      -141.10308656
 Exchange energy                            :       -10.32175214
 Correlation energy                         :        -0.41848419
 DFT-D2 dispersion correction               :        -0.01026228
 
 DOS at Fermi energy (states/Ha/cell)       :         3.99155734
 
 Electron charges :
     core                                   :         4.00000000
     core leakage                           :         0.00129553
     valence                                :         8.00000000
     interstitial                           :         4.85572372
     charge in muffin-tin spheres :
                  atom     1     C          :         3.57213814
                  atom     2     C          :         3.57213814
     total charge in muffin-tins            :         7.14427628
     total charge                           :        12.00000000
 
 Optimized atomic positions (lattice) :
 atom     1   C  :     0.00000000    0.00000000    0.00000000
 atom     2   C  :     0.33115154    0.32643741    0.00000000
 
 Total atomic forces including IBS (cartesian) :
 atom     1   C  :    -0.00000051   -0.00000245    0.00000000
 atom     2   C  :     0.00000051    0.00000245    0.00000000
 
 Atomic force components including IBS (cartesian) :
 atom     1   C  :     0.05290839    0.00031223    0.00000000   HF force
                 :    -0.05282833   -0.00005334    0.00000000   core correction
                 :    -0.00081482   -0.00026184    0.00000000   IBS correction
                 :     0.00073425    0.00000051    0.00000000   DFT-D2 force
 atom     2   C  :    -0.05290839   -0.00031223    0.00000000   HF force
                 :     0.05282833    0.00005334    0.00000000   core correction
                 :     0.00081482    0.00026184    0.00000000   IBS correction
                 :    -0.00073425   -0.00000051    0.00000000   DFT-D2 force
 
********************************************************************************
| Structure-optimization module stopped                                        *
********************************************************************************
 
 Total time spent (seconds)                 :     19638.82
 
================================================================================
| EXCITING BORON stopped                                                       =
================================================================================
