================================================================================
| EXCITING CARBON started                                                      =
| version hash id:                                                             =
|                                                                              =
| Date (DD-MM-YYYY) : 22-12-2016                                               =
| Time (hh:mm:ss)   : 13:27:43                                                 =
|                                                                              =
| All units are atomic (Hartree, Bohr, etc.)                                   =
================================================================================

********************************************************************************
| Structural optimisation starting from atomic densities                       *
********************************************************************************

++++++++++++++++++++++++++++++++++++++++++++++++++++++++++++++++++++++++++++++++
| Starting initialization                                                      +
++++++++++++++++++++++++++++++++++++++++++++++++++++++++++++++++++++++++++++++++

 Lattice vectors (cartesian) :
      3.2152565686      3.2152565686     -0.2747392061
      3.2152565686     -0.2747392061      3.2152565686
     -0.2747392061      3.2152565686      3.2152565686

 Reciprocal lattice vectors (cartesian) :
      0.9403465580      0.9403465580     -0.8599952512
      0.9403465580     -0.8599952512      0.9403465580
     -0.8599952512      0.9403465580      0.9403465580

 Unit cell volume                           :      74.9777605089
 Brillouin zone volume                      :       3.3083171831

 Species :    1 (C)
     parameters loaded from                 :    C.xml
     name                                   :    carbon
     nuclear charge                         :      -6.00000000
     electronic charge                      :       6.00000000
     atomic mass                            :   21894.16673000
     muffin-tin radius                      :       1.30000000
     # of radial points in muffin-tin       :     250

     atomic positions (lattice) :
       1 :   0.00000000  0.00000000  0.00000000
       2 :   0.25000000  0.25000000  0.25000000

 Total number of atoms per unit cell        :       2

 Spin treatment                             :    spin-unpolarised

 Number of Bravais lattice symmetries       :      12
 Number of crystal symmetries               :      12

 k-point grid                               :       6    6    6
 Total number of k-points                   :      32
 k-point set is reduced with crystal symmetries

 R^MT_min * |G+k|_max (rgkmax)              :       7.00000000
 Species with R^MT_min                      :       1 (C)
 Maximum |G+k| for APW functions            :       5.38461538
 Maximum |G| for potential and density      :      18.00000000

 G-vector grid sizes                        :      27    27    27
 Total number of G-vectors                  :    7377

 Maximum angular momentum used for
     APW functions                          :       8
     computing H and O matrix elements      :       8
     potential and density                  :       8
     inner part of muffin-tin               :       2

 Total nuclear charge                       :     -12.00000000
 Total electronic charge                    :      12.00000000
 Total core charge                          :       4.00000000
 Total valence charge                       :       8.00000000

 Number of empty states                     :       5
 Total number of valence states             :      10

 Maximum Hamiltonian size                   :     215
 Maximum number of plane-waves              :     207
 Total number of local-orbitals             :       8

 Exchange-correlation type                  :      22
     PBEsol, Phys. Rev. Lett. 100, 136406 (2008)
     Generalised gradient approximation (GGA)

 Smearing scheme                            :    Gaussian
 Smearing width                             :       0.00010000

 Using multisecant Broyden potential mixing

++++++++++++++++++++++++++++++++++++++++++++++++++++++++++++++++++++++++++++++++
| Ending initialization                                                        +
++++++++++++++++++++++++++++++++++++++++++++++++++++++++++++++++++++++++++++++++

********************************************************************************
| Groundstate module started                                                   *
********************************************************************************
 Output level for this task is set to normal

++++++++++++++++++++++++++++++++++++++++++++++++++++++++++++++++++++++++++++++++
| Self-consistent loop started                                                 +
++++++++++++++++++++++++++++++++++++++++++++++++++++++++++++++++++++++++++++++++
 Density and potential initialised from atomic data


++++++++++++++++++++++++++++++++++++++++++++++++++++++++++++++++++++++++++++++++
| SCF iteration number :    1                                                  +
++++++++++++++++++++++++++++++++++++++++++++++++++++++++++++++++++++++++++++++++
 Total energy                               :       -76.88911170
 _______________________________________________________________
 Fermi energy                               :         0.48245947
 Kinetic energy                             :        75.09031115
 Coulomb energy                             :      -141.37056464
 Exchange energy                            :       -10.10847384
 Correlation energy                         :        -0.50038436

 DOS at Fermi energy (states/Ha/cell)       :         0.00000000

 Electron charges :
     core                                   :         4.00000000
     core leakage                           :         0.00056899
     valence                                :         8.00000000
     interstitial                           :         3.97200334
     charge in muffin-tin spheres :
                  atom     1     C          :         4.01399833
                  atom     2     C          :         4.01399833
     total charge in muffin-tins            :         8.02799666
     total charge                           :        12.00000000

 Estimated fundamental gap                  :         0.14353259
        valence-band maximum at    1      0.0000  0.0000  0.0000
     conduction-band minimum at   13      0.5000  0.5000  0.0000

 Wall time (seconds)                        :         6.40

++++++++++++++++++++++++++++++++++++++++++++++++++++++++++++++++++++++++++++++++
| SCF iteration number :    2                                                  +
++++++++++++++++++++++++++++++++++++++++++++++++++++++++++++++++++++++++++++++++
 Total energy                               :       -76.54142186
 _______________________________________________________________
 Fermi energy                               :         0.49126839
 Kinetic energy                             :        75.28536954
 Coulomb energy                             :      -141.23601128
 Exchange energy                            :       -10.08922660
 Correlation energy                         :        -0.50155352

 DOS at Fermi energy (states/Ha/cell)       :         0.00000000

 Electron charges :
     core                                   :         4.00000000
     core leakage                           :         0.00057335
     valence                                :         8.00000000
     interstitial                           :         4.01319327
     charge in muffin-tin spheres :
                  atom     1     C          :         3.99340337
                  atom     2     C          :         3.99340337
     total charge in muffin-tins            :         7.98680673
     total charge                           :        12.00000000

 Estimated fundamental gap                  :         0.13217571
        valence-band maximum at    1      0.0000  0.0000  0.0000
     conduction-band minimum at   13      0.5000  0.5000  0.0000

 Wall time (seconds)                        :        12.14

 RMS change in effective potential (target) :   2.50214      ( 0.100000E-05)
 Absolute change in total energy   (target) :  0.347690      ( 0.100000E-05)
 Charge distance                   (target) :  0.792827E-02  ( 0.100000E-04)
 Abs. change in max-nonIBS-force   (target) :  0.915233E-01  ( 0.500000E-04)

++++++++++++++++++++++++++++++++++++++++++++++++++++++++++++++++++++++++++++++++
| SCF iteration number :    3                                                  +
++++++++++++++++++++++++++++++++++++++++++++++++++++++++++++++++++++++++++++++++
 Total energy                               :       -76.28810058
 _______________________________________________________________
 Fermi energy                               :         0.49774637
 Kinetic energy                             :        75.42703594
 Coulomb energy                             :      -141.13769440
 Exchange energy                            :       -10.07499403
 Correlation energy                         :        -0.50244809

 DOS at Fermi energy (states/Ha/cell)       :         0.00000000

 Electron charges :
     core                                   :         4.00000000
     core leakage                           :         0.00057624
     valence                                :         8.00000000
     interstitial                           :         4.04438828
     charge in muffin-tin spheres :
                  atom     1     C          :         3.97780586
                  atom     2     C          :         3.97780586
     total charge in muffin-tins            :         7.95561172
     total charge                           :        12.00000000

 Estimated fundamental gap                  :         0.12355809
        valence-band maximum at    1      0.0000  0.0000  0.0000
     conduction-band minimum at   13      0.5000  0.5000  0.0000

 Wall time (seconds)                        :        17.83

 RMS change in effective potential (target) :   1.83441      ( 0.100000E-05)
 Absolute change in total energy   (target) :  0.253321      ( 0.100000E-05)
 Charge distance                   (target) :  0.602153E-02  ( 0.100000E-04)
 Abs. change in max-nonIBS-force   (target) :  0.518736E-01  ( 0.500000E-04)

++++++++++++++++++++++++++++++++++++++++++++++++++++++++++++++++++++++++++++++++
| SCF iteration number :    4                                                  +
++++++++++++++++++++++++++++++++++++++++++++++++++++++++++++++++++++++++++++++++
 Total energy                               :       -76.02390977
 _______________________________________________________________
 Fermi energy                               :         0.50609484
 Kinetic energy                             :        75.58526609
 Coulomb energy                             :      -141.04766612
 Exchange energy                            :       -10.05776262
 Correlation energy                         :        -0.50374712

 DOS at Fermi energy (states/Ha/cell)       :         0.00000000

 Electron charges :
     core                                   :         4.00000000
     core leakage                           :         0.00057503
     valence                                :         8.00000000
     interstitial                           :         4.08787292
     charge in muffin-tin spheres :
                  atom     1     C          :         3.95606354
                  atom     2     C          :         3.95606354
     total charge in muffin-tins            :         7.91212708
     total charge                           :        12.00000000

 Estimated fundamental gap                  :         0.11046971
        valence-band maximum at    1      0.0000  0.0000  0.0000
     conduction-band minimum at   13      0.5000  0.5000  0.0000

 Wall time (seconds)                        :        23.47

 RMS change in effective potential (target) :  0.478707E-01  ( 0.100000E-05)
 Absolute change in total energy   (target) :  0.264191      ( 0.100000E-05)
 Charge distance                   (target) :  0.857648E-02  ( 0.100000E-04)
 Abs. change in max-nonIBS-force   (target) :  0.156124E-01  ( 0.500000E-04)

++++++++++++++++++++++++++++++++++++++++++++++++++++++++++++++++++++++++++++++++
| SCF iteration number :    5                                                  +
++++++++++++++++++++++++++++++++++++++++++++++++++++++++++++++++++++++++++++++++
 Total energy                               :       -75.80781312
 _______________________________________________________________
 Fermi energy                               :         0.51029078
 Kinetic energy                             :        75.69456352
 Coulomb energy                             :      -140.95131340
 Exchange energy                            :       -10.04672625
 Correlation energy                         :        -0.50433699

 DOS at Fermi energy (states/Ha/cell)       :         0.00000000

 Electron charges :
     core                                   :         4.00000000
     core leakage                           :         0.00058000
     valence                                :         8.00000000
     interstitial                           :         4.10935772
     charge in muffin-tin spheres :
                  atom     1     C          :         3.94532114
                  atom     2     C          :         3.94532114
     total charge in muffin-tins            :         7.89064228
     total charge                           :        12.00000000

 Estimated fundamental gap                  :         0.10540153
        valence-band maximum at    1      0.0000  0.0000  0.0000
     conduction-band minimum at   13      0.5000  0.5000  0.0000

 Wall time (seconds)                        :        29.10

 RMS change in effective potential (target) :  0.247682E-01  ( 0.100000E-05)
 Absolute change in total energy   (target) :  0.216097      ( 0.100000E-05)
 Charge distance                   (target) :  0.423203E-02  ( 0.100000E-04)
 Abs. change in max-nonIBS-force   (target) :  0.214672E-01  ( 0.500000E-04)

++++++++++++++++++++++++++++++++++++++++++++++++++++++++++++++++++++++++++++++++
| SCF iteration number :    6                                                  +
++++++++++++++++++++++++++++++++++++++++++++++++++++++++++++++++++++++++++++++++
 Total energy                               :       -75.87552247
 _______________________________________________________________
 Fermi energy                               :         0.50906889
 Kinetic energy                             :        75.66078226
 Coulomb energy                             :      -140.98190595
 Exchange energy                            :       -10.05025093
 Correlation energy                         :        -0.50414784

 DOS at Fermi energy (states/Ha/cell)       :         0.00000000

 Electron charges :
     core                                   :         4.00000000
     core leakage                           :         0.00057845
     valence                                :         8.00000000
     interstitial                           :         4.10247348
     charge in muffin-tin spheres :
                  atom     1     C          :         3.94876326
                  atom     2     C          :         3.94876326
     total charge in muffin-tins            :         7.89752652
     total charge                           :        12.00000000

 Estimated fundamental gap                  :         0.10703965
        valence-band maximum at    1      0.0000  0.0000  0.0000
     conduction-band minimum at   13      0.5000  0.5000  0.0000

 Wall time (seconds)                        :        34.71

 RMS change in effective potential (target) :  0.410532E-03  ( 0.100000E-05)
 Absolute change in total energy   (target) :  0.677094E-01  ( 0.100000E-05)
 Charge distance                   (target) :  0.138057E-02  ( 0.100000E-04)
 Abs. change in max-nonIBS-force   (target) :  0.109155E-01  ( 0.500000E-04)

++++++++++++++++++++++++++++++++++++++++++++++++++++++++++++++++++++++++++++++++
| SCF iteration number :    7                                                  +
++++++++++++++++++++++++++++++++++++++++++++++++++++++++++++++++++++++++++++++++
 Total energy                               :       -75.87678910
 _______________________________________________________________
 Fermi energy                               :         0.50902593
 Kinetic energy                             :        75.66015584
 Coulomb energy                             :      -140.98249233
 Exchange energy                            :       -10.05030783
 Correlation energy                         :        -0.50414478

 DOS at Fermi energy (states/Ha/cell)       :         0.00000000

 Electron charges :
     core                                   :         4.00000000
     core leakage                           :         0.00057841
     valence                                :         8.00000000
     interstitial                           :         4.10237112
     charge in muffin-tin spheres :
                  atom     1     C          :         3.94881444
                  atom     2     C          :         3.94881444
     total charge in muffin-tins            :         7.89762888
     total charge                           :        12.00000000

 Estimated fundamental gap                  :         0.10706334
        valence-band maximum at    1      0.0000  0.0000  0.0000
     conduction-band minimum at   13      0.5000  0.5000  0.0000

 Wall time (seconds)                        :        40.34

 RMS change in effective potential (target) :  0.813944E-04  ( 0.100000E-05)
 Absolute change in total energy   (target) :  0.126663E-02  ( 0.100000E-05)
 Charge distance                   (target) :  0.238630E-04  ( 0.100000E-04)
 Abs. change in max-nonIBS-force   (target) :  0.375771E-04  ( 0.500000E-04)

++++++++++++++++++++++++++++++++++++++++++++++++++++++++++++++++++++++++++++++++
| SCF iteration number :    8                                                  +
++++++++++++++++++++++++++++++++++++++++++++++++++++++++++++++++++++++++++++++++
 Total energy                               :       -75.87680948
 _______________________________________________________________
 Fermi energy                               :         0.50903080
 Kinetic energy                             :        75.66012992
 Coulomb energy                             :      -140.98248501
 Exchange energy                            :       -10.05030965
 Correlation energy                         :        -0.50414474

 DOS at Fermi energy (states/Ha/cell)       :         0.00000000

 Electron charges :
     core                                   :         4.00000000
     core leakage                           :         0.00057841
     valence                                :         8.00000000
     interstitial                           :         4.10236496
     charge in muffin-tin spheres :
                  atom     1     C          :         3.94881752
                  atom     2     C          :         3.94881752
     total charge in muffin-tins            :         7.89763504
     total charge                           :        12.00000000

 Estimated fundamental gap                  :         0.10706391
        valence-band maximum at    1      0.0000  0.0000  0.0000
     conduction-band minimum at   13      0.5000  0.5000  0.0000

 Wall time (seconds)                        :        45.96

 RMS change in effective potential (target) :  0.130635E-04  ( 0.100000E-05)
 Absolute change in total energy   (target) :  0.203741E-04  ( 0.100000E-05)
 Charge distance                   (target) :  0.785271E-05  ( 0.100000E-04)
 Abs. change in max-nonIBS-force   (target) :  0.101552E-03  ( 0.500000E-04)

++++++++++++++++++++++++++++++++++++++++++++++++++++++++++++++++++++++++++++++++
| SCF iteration number :    9                                                  +
++++++++++++++++++++++++++++++++++++++++++++++++++++++++++++++++++++++++++++++++
 Total energy                               :       -75.87676310
 _______________________________________________________________
 Fermi energy                               :         0.50903106
 Kinetic energy                             :        75.66015431
 Coulomb energy                             :      -140.98246529
 Exchange energy                            :       -10.05030727
 Correlation energy                         :        -0.50414485

 DOS at Fermi energy (states/Ha/cell)       :         0.00000000

 Electron charges :
     core                                   :         4.00000000
     core leakage                           :         0.00057841
     valence                                :         8.00000000
     interstitial                           :         4.10236965
     charge in muffin-tin spheres :
                  atom     1     C          :         3.94881517
                  atom     2     C          :         3.94881517
     total charge in muffin-tins            :         7.89763035
     total charge                           :        12.00000000

 Estimated fundamental gap                  :         0.10706299
        valence-band maximum at    1      0.0000  0.0000  0.0000
     conduction-band minimum at   13      0.5000  0.5000  0.0000

 Wall time (seconds)                        :        51.59

 RMS change in effective potential (target) :  0.117953E-05  ( 0.100000E-05)
 Absolute change in total energy   (target) :  0.463735E-04  ( 0.100000E-05)
 Charge distance                   (target) :  0.144774E-05  ( 0.100000E-04)
 Abs. change in max-nonIBS-force   (target) :  0.192661E-04  ( 0.500000E-04)

++++++++++++++++++++++++++++++++++++++++++++++++++++++++++++++++++++++++++++++++
| SCF iteration number :   10                                                  +
++++++++++++++++++++++++++++++++++++++++++++++++++++++++++++++++++++++++++++++++
 Total energy                               :       -75.87676264
 _______________________________________________________________
 Fermi energy                               :         0.50903109
 Kinetic energy                             :        75.66015475
 Coulomb energy                             :      -140.98246529
 Exchange energy                            :       -10.05030725
 Correlation energy                         :        -0.50414485

 DOS at Fermi energy (states/Ha/cell)       :         0.00000000

 Electron charges :
     core                                   :         4.00000000
     core leakage                           :         0.00057841
     valence                                :         8.00000000
     interstitial                           :         4.10236973
     charge in muffin-tin spheres :
                  atom     1     C          :         3.94881513
                  atom     2     C          :         3.94881513
     total charge in muffin-tins            :         7.89763027
     total charge                           :        12.00000000

 Estimated fundamental gap                  :         0.10706296
        valence-band maximum at    1      0.0000  0.0000  0.0000
     conduction-band minimum at   13      0.5000  0.5000  0.0000

 Wall time (seconds)                        :        57.22

 RMS change in effective potential (target) :  0.180896E-06  ( 0.100000E-05)
 Absolute change in total energy   (target) :  0.464980E-06  ( 0.100000E-05)
 Charge distance                   (target) :  0.173303E-07  ( 0.100000E-04)
 Abs. change in max-nonIBS-force   (target) :  0.266095E-07  ( 0.500000E-04)

++++++++++++++++++++++++++++++++++++++++++++++++++++++++++++++++++++++++++++++++
| SCF iteration number :   11                                                  +
++++++++++++++++++++++++++++++++++++++++++++++++++++++++++++++++++++++++++++++++
 Total energy                               :       -75.87676281
 _______________________________________________________________
 Fermi energy                               :         0.50903108
 Kinetic energy                             :        75.66015464
 Coulomb energy                             :      -140.98246534
 Exchange energy                            :       -10.05030726
 Correlation energy                         :        -0.50414485

 DOS at Fermi energy (states/Ha/cell)       :         0.00000000

 Electron charges :
     core                                   :         4.00000000
     core leakage                           :         0.00057841
     valence                                :         8.00000000
     interstitial                           :         4.10236971
     charge in muffin-tin spheres :
                  atom     1     C          :         3.94881514
                  atom     2     C          :         3.94881514
     total charge in muffin-tins            :         7.89763029
     total charge                           :        12.00000000

 Estimated fundamental gap                  :         0.10706297
        valence-band maximum at    1      0.0000  0.0000  0.0000
     conduction-band minimum at   13      0.5000  0.5000  0.0000

 Wall time (seconds)                        :        62.85

 RMS change in effective potential (target) :  0.316597E-07  ( 0.100000E-05)
 Absolute change in total energy   (target) :  0.173420E-06  ( 0.100000E-05)
 Charge distance                   (target) :  0.427162E-08  ( 0.100000E-04)
 Abs. change in max-nonIBS-force   (target) :  0.124579E-07  ( 0.500000E-04)
                                                                                
++++++++++++++++++++++++++++++++++++++++++++++++++++++++++++++++++++++++++++++++
| Convergency criteria checked for the last 2 iterations                       +
| Convergence targets achieved. Performing final SCF iteration                 +
++++++++++++++++++++++++++++++++++++++++++++++++++++++++++++++++++++++++++++++++
 Total energy                               :       -75.87676282
 _______________________________________________________________
 Fermi energy                               :         0.50903108
 Kinetic energy                             :        75.66015463
 Coulomb energy                             :      -140.98246534
 Exchange energy                            :       -10.05030726
 Correlation energy                         :        -0.50414485

 DOS at Fermi energy (states/Ha/cell)       :         0.00000000

 Electron charges :
     core                                   :         4.00000000
     core leakage                           :         0.00057841
     valence                                :         8.00000000
     interstitial                           :         4.10236971
     charge in muffin-tin spheres :
                  atom     1     C          :         3.94881515
                  atom     2     C          :         3.94881515
     total charge in muffin-tins            :         7.89763029
     total charge                           :        12.00000000

 Estimated fundamental gap                  :         0.10706297
        valence-band maximum at    1      0.0000  0.0000  0.0000
     conduction-band minimum at   13      0.5000  0.5000  0.0000

++++++++++++++++++++++++++++++++++++++++++++++++++++++++++++++++++++++++++++++++
| Self-consistent loop stopped                                                 +
++++++++++++++++++++++++++++++++++++++++++++++++++++++++++++++++++++++++++++++++
 STATE.OUT is written

--------------------------------------------------------------------------------
| Writing atomic positions and forces                                          -
--------------------------------------------------------------------------------

 Atomic positions (lattice) :
 atom     1   C  :     0.00000000    0.00000000    0.00000000
 atom     2   C  :     0.25000000    0.25000000    0.25000000

 Total atomic forces including IBS (cartesian) :
 atom     1   C  :    -0.01949126   -0.01949126   -0.01949126
 atom     2   C  :     0.01949126    0.01949126    0.01949126

 Atomic force components including IBS (cartesian) :
 atom     1   C  :    -0.00898203   -0.00898203   -0.00898203   HF force
                 :    -0.01096214   -0.01096214   -0.01096214   core correction
                 :     0.00045291    0.00045291    0.00045291   IBS correction
 atom     2   C  :     0.00898203    0.00898203    0.00898203   HF force
                 :     0.01096214    0.01096214    0.01096214   core correction
                 :    -0.00045291   -0.00045291   -0.00045291   IBS correction

********************************************************************************
| Groundstate module stopped                                                   *
********************************************************************************

********************************************************************************
| Structure-optimization module started                                        *
********************************************************************************
 Output level for this task is set to normal

 Maximum displacement tau_BFGS   is         :         0.3000
 Maximum displacement tau_newton is         :         0.2000

++++++++++++++++++++++++++++++++++++++++++++++++++++++++++++++++++++++++++++++++
| Use L-BFGS-B method for optimizing atomic positions                          +
++++++++++++++++++++++++++++++++++++++++++++++++++++++++++++++++++++++++++++++++

--------------------------------------------------------------------------------
| Optimization step 0: Initialize optimization                                 -
--------------------------------------------------------------------------------
 Maximum force magnitude           (target) :         0.03375985  (  0.00020000)
 Total energy at this optimization step     :       -75.87676282

 Atomic positions at this step (lattice) :
 atom     1   C  :     0.00000000    0.00000000    0.00000000
 atom     2   C  :     0.25000000    0.25000000    0.25000000

 Total atomic forces including IBS (cartesian) :
 atom     1   C  :    -0.01949126   -0.01949126   -0.01949126
 atom     2   C  :     0.01949126    0.01949126    0.01949126

--------------------------------------------------------------------------------
| Optimization step    1    (method = bfgs)                                    -
--------------------------------------------------------------------------------
 Number of investigated configurations      :         1
 Number of total scf iterations             :        17
 Maximum force magnitude           (target) :         0.00379832  (  0.00020000)
 Total energy at this optimization step     :       -75.87773508

 Atomic positions at this step (lattice) :
 atom     1   C  :     0.00000000    0.00000000    0.00000000
 atom     2   C  :     0.25633268    0.25633268    0.25633268

 Total atomic forces including IBS (cartesian) :
 atom     1   C  :     0.00219296    0.00219296    0.00219296
 atom     2   C  :    -0.00219296   -0.00219296   -0.00219296

 Time spent in this optimization step       :        99.53 seconds

--------------------------------------------------------------------------------
| Optimization step    2    (method = bfgs)                                    -
--------------------------------------------------------------------------------
 Number of investigated configurations      :         1
 Number of total scf iterations             :        12
 Maximum force magnitude           (target) :         0.00023870  (  0.00020000)
 Total energy at this optimization step     :       -75.87774982

 Atomic positions at this step (lattice) :
 atom     1   C  :     0.00000000    0.00000000    0.00000000
 atom     2   C  :     0.25569224    0.25569224    0.25569224

 Total atomic forces including IBS (cartesian) :
 atom     1   C  :     0.00013782    0.00013782    0.00013782
 atom     2   C  :    -0.00013782   -0.00013782   -0.00013782

 Time spent in this optimization step       :        68.98 seconds

--------------------------------------------------------------------------------
| Optimization step    3    (method = bfgs)                                    -
--------------------------------------------------------------------------------
 Number of investigated configurations      :         1
 Number of total scf iterations             :        11
 Maximum force magnitude           (target) :         0.00000188  (  0.00020000)
 Total energy at this optimization step     :       -75.87774994

 Atomic positions at this step (lattice) :
 atom     1   C  :     0.00000000    0.00000000    0.00000000
 atom     2   C  :     0.25564930    0.25564930    0.25564930

 Total atomic forces including IBS (cartesian) :
 atom     1   C  :    -0.00000108   -0.00000108   -0.00000108
 atom     2   C  :     0.00000108    0.00000108    0.00000108

 Time spent in this optimization step       :        67.74 seconds

++++++++++++++++++++++++++++++++++++++++++++++++++++++++++++++++++++++++++++++++
| Force convergence target achieved                                            +
++++++++++++++++++++++++++++++++++++++++++++++++++++++++++++++++++++++++++++++++
 Total energy                               :       -75.87774994
 _______________________________________________________________
 Fermi energy                               :         0.50795796
 Kinetic energy                             :        75.63327897
 Coulomb energy                             :      -140.96108987
 Exchange energy                            :       -10.04576403
 Correlation energy                         :        -0.50417500

 DOS at Fermi energy (states/Ha/cell)       :         0.00000000

 Electron charges :
     core                                   :         4.00000000
     core leakage                           :         0.00057768
     valence                                :         8.00000000
     interstitial                           :         4.11944971
     charge in muffin-tin spheres :
                  atom     1     C          :         3.94027514
                  atom     2     C          :         3.94027514
     total charge in muffin-tins            :         7.88055029
     total charge                           :        12.00000000

 Optimized atomic positions (lattice) :
 atom     1   C  :     0.00000000    0.00000000    0.00000000
 atom     2   C  :     0.25564930    0.25564930    0.25564930

 Total atomic forces including IBS (cartesian) :
 atom     1   C  :    -0.00000108   -0.00000108   -0.00000108
 atom     2   C  :     0.00000108    0.00000108    0.00000108

 Atomic force components including IBS (cartesian) :
 atom     1   C  :     0.01209219    0.01209219    0.01209219   HF force
                 :    -0.01221870   -0.01221870   -0.01221870   core correction
                 :     0.00012542    0.00012542    0.00012542   IBS correction
 atom     2   C  :    -0.01209219   -0.01209219   -0.01209219   HF force
                 :     0.01221870    0.01221870    0.01221870   core correction
                 :    -0.00012542   -0.00012542   -0.00012542   IBS correction

********************************************************************************
| Structure-optimization module stopped                                        *
********************************************************************************

 Total time spent (seconds)                 :       306.40

================================================================================
| EXCITING CARBON stopped                                                      =
================================================================================
