================================================================================
| EXCITING BORON started                                                       =
| version hash id:                                                             =
| MPI version using     16 processor(s)                                        =
|                                                                              =
| Date (DD-MM-YYYY) : 09-08-2015                                               =
| Time (hh:mm:ss)   : 22:20:57                                                 =
|                                                                              =
| All units are atomic (Hartree, Bohr, etc.)                                   =
================================================================================
 
********************************************************************************
| Structural optimisation starting from atomic densities                       *
********************************************************************************
 
++++++++++++++++++++++++++++++++++++++++++++++++++++++++++++++++++++++++++++++++
| Starting initialization                                                      +
++++++++++++++++++++++++++++++++++++++++++++++++++++++++++++++++++++++++++++++++
 
 Lattice vectors (cartesian) :
      2.3270000000      4.0304822292      0.0000000000
     -2.3270000000      4.0304822292      0.0000000000
      0.0000000000      0.0000000000      6.5100088452
 
 Reciprocal lattice vectors (cartesian) :
      1.3500613036      0.7794582571      0.0000000000
     -1.3500613036      0.7794582571      0.0000000000
      0.0000000000      0.0000000000      0.9651577220
 
 Unit cell volume                           :     122.1138624747
 Brillouin zone volume                      :       2.0313026582
 
 Species :    1 (C)
     parameters loaded from                 :    C.xml
     name                                   :    carbon
     nuclear charge                         :      -6.00000000
     electronic charge                      :       6.00000000
     atomic mass                            :   21894.16673000
     muffin-tin radius                      :       1.20000000
     # of radial points in muffin-tin       :     250
 
     atomic positions (lattice) :
       1 :   0.00000000  0.00000000  0.00000000
       2 :   0.33333333  0.33333333  0.00000000
 
 Total number of atoms per unit cell        :       2
 
 Spin treatment                             :    spin-unpolarised
 
 Number of Bravais lattice symmetries       :      24
 Number of crystal symmetries               :      24
 
 k-point grid                               :      34   34   24
 Total number of k-points                   :    1482
 k-point set is reduced with crystal symmetries
 
 R^MT_min * |G+k|_max (rgkmax)              :       8.00000000
 Species with R^MT_min                      :       1 (C)
 Maximum |G+k| for APW functions            :       6.66666667
 Maximum |G| for potential and density      :      20.00000000
 
 G-vector grid sizes                        :      30    30    45
 Total number of G-vectors                  :   16487
 
 Maximum angular momentum used for
     APW functions                          :       8
     computing H and O matrix elements      :       8
     potential and density                  :       8
     inner part of muffin-tin               :       2
 
 Total nuclear charge                       :     -12.00000000
 Total electronic charge                    :      12.00000000
 Total core charge                          :       4.00000000
 Total valence charge                       :       8.00000000
 
 Number of empty states                     :       5
 Total number of valence states             :      10
 
 Maximum Hamiltonian size                   :     640
 Maximum number of plane-waves              :     632
 Total number of local-orbitals             :       8
 
 Exchange-correlation type                  :      20
     Perdew-Burke-Ernzerhof, Phys. Rev. Lett. 77, 3865 (1996)
     Generalised gradient approximation (GGA)
 
 Smearing scheme                            :    Gaussian
 Smearing width                             :       0.01000000
 
 Using multisecant Broyden potential mixing
 
++++++++++++++++++++++++++++++++++++++++++++++++++++++++++++++++++++++++++++++++
| Ending initialization                                                        +
++++++++++++++++++++++++++++++++++++++++++++++++++++++++++++++++++++++++++++++++
 
********************************************************************************
| Groundstate module started                                                   *
********************************************************************************
 Output level for this task is set to normal
 
++++++++++++++++++++++++++++++++++++++++++++++++++++++++++++++++++++++++++++++++
| Self-consistent loop started                                                 +
++++++++++++++++++++++++++++++++++++++++++++++++++++++++++++++++++++++++++++++++
 Density and potential initialised from atomic data
 
 
++++++++++++++++++++++++++++++++++++++++++++++++++++++++++++++++++++++++++++++++
| SCF iteration number :    1                                                  +
++++++++++++++++++++++++++++++++++++++++++++++++++++++++++++++++++++++++++++++++
 Total energy                               :       -78.33824505
 _______________________________________________________________
 Fermi energy                               :         0.16545392
 Kinetic energy                             :        74.51740929
 Coulomb energy                             :      -141.93465587
 Exchange energy                            :       -10.50180523
 Correlation energy                         :        -0.41919324
 
 DOS at Fermi energy (states/Ha/cell)       :         0.99836836
 
 Electron charges :
     core                                   :         4.00000000
     core leakage                           :         0.00128280
     valence                                :         8.00000000
     interstitial                           :         4.53596693
     charge in muffin-tin spheres :
                  atom     1     C          :         3.73201654
                  atom     2     C          :         3.73201654
     total charge in muffin-tins            :         7.46403307
     total charge                           :        12.00000000
 
 Wall time (seconds)                        :        35.85
 
++++++++++++++++++++++++++++++++++++++++++++++++++++++++++++++++++++++++++++++++
| SCF iteration number :    2                                                  +
++++++++++++++++++++++++++++++++++++++++++++++++++++++++++++++++++++++++++++++++
 Total energy                               :       -77.55570827
 _______________________________________________________________
 Fermi energy                               :         0.18716235
 Kinetic energy                             :        75.04702313
 Coulomb energy                             :      -141.71873781
 Exchange energy                            :       -10.46386521
 Correlation energy                         :        -0.42012839
 
 DOS at Fermi energy (states/Ha/cell)       :         1.06744807
 
 Electron charges :
     core                                   :         4.00000000
     core leakage                           :         0.00129515
     valence                                :         8.00000000
     interstitial                           :         4.59947458
     charge in muffin-tin spheres :
                  atom     1     C          :         3.70026271
                  atom     2     C          :         3.70026271
     total charge in muffin-tins            :         7.40052542
     total charge                           :        12.00000000
 
 Wall time (seconds)                        :        70.74
 
 RMS change in effective potential (target) :   1.60864      ( 0.100000E-05)
 Absolute change in total energy   (target) :  0.782537      ( 0.100000E-06)
 Charge distance                   (target) :  0.129144E-01  ( 0.100000E-04)
 Abs. change in max-nonIBS-force   (target) :   0.00000      ( 0.250000E-05)
 
++++++++++++++++++++++++++++++++++++++++++++++++++++++++++++++++++++++++++++++++
| SCF iteration number :    3                                                  +
++++++++++++++++++++++++++++++++++++++++++++++++++++++++++++++++++++++++++++++++
 Total energy                               :       -77.00156027
 _______________________________________________________________
 Fermi energy                               :         0.20197420
 Kinetic energy                             :        75.41869357
 Coulomb energy                             :      -141.56300388
 Exchange energy                            :       -10.43638730
 Correlation energy                         :        -0.42086265
 
 DOS at Fermi energy (states/Ha/cell)       :         1.12506464
 
 Electron charges :
     core                                   :         4.00000000
     core leakage                           :         0.00130311
     valence                                :         8.00000000
     interstitial                           :         4.64573331
     charge in muffin-tin spheres :
                  atom     1     C          :         3.67713334
                  atom     2     C          :         3.67713334
     total charge in muffin-tins            :         7.35426669
     total charge                           :        12.00000000
 
 Wall time (seconds)                        :       105.29
 
 RMS change in effective potential (target) :   1.18711      ( 0.100000E-05)
 Absolute change in total energy   (target) :  0.554148      ( 0.100000E-06)
 Charge distance                   (target) :  0.951865E-02  ( 0.100000E-04)
 Abs. change in max-nonIBS-force   (target) :   0.00000      ( 0.250000E-05)
 
++++++++++++++++++++++++++++++++++++++++++++++++++++++++++++++++++++++++++++++++
| SCF iteration number :    4                                                  +
++++++++++++++++++++++++++++++++++++++++++++++++++++++++++++++++++++++++++++++++
 Total energy                               :       -76.75652410
 _______________________________________________________________
 Fermi energy                               :         0.20786681
 Kinetic energy                             :        75.59762113
 Coulomb energy                             :      -141.51155484
 Exchange energy                            :       -10.42124342
 Correlation energy                         :        -0.42134697
 
 DOS at Fermi energy (states/Ha/cell)       :         1.16540283
 
 Electron charges :
     core                                   :         4.00000000
     core leakage                           :         0.00129543
     valence                                :         8.00000000
     interstitial                           :         4.67573516
     charge in muffin-tin spheres :
                  atom     1     C          :         3.66213242
                  atom     2     C          :         3.66213242
     total charge in muffin-tins            :         7.32426484
     total charge                           :        12.00000000
 
 Wall time (seconds)                        :       139.99
 
 RMS change in effective potential (target) :  0.669484E-01  ( 0.100000E-05)
 Absolute change in total energy   (target) :  0.245036      ( 0.100000E-06)
 Charge distance                   (target) :  0.670428E-02  ( 0.100000E-04)
 Abs. change in max-nonIBS-force   (target) :   0.00000      ( 0.250000E-05)
 
++++++++++++++++++++++++++++++++++++++++++++++++++++++++++++++++++++++++++++++++
| SCF iteration number :    5                                                  +
++++++++++++++++++++++++++++++++++++++++++++++++++++++++++++++++++++++++++++++++
 Total energy                               :       -75.93791116
 _______________________________________________________________
 Fermi energy                               :         0.22876661
 Kinetic energy                             :        76.12315358
 Coulomb energy                             :      -141.25694992
 Exchange energy                            :       -10.38163365
 Correlation energy                         :        -0.42248117
 
 DOS at Fermi energy (states/Ha/cell)       :         1.26592765
 
 Electron charges :
     core                                   :         4.00000000
     core leakage                           :         0.00131511
     valence                                :         8.00000000
     interstitial                           :         4.73959461
     charge in muffin-tin spheres :
                  atom     1     C          :         3.63020269
                  atom     2     C          :         3.63020269
     total charge in muffin-tins            :         7.26040539
     total charge                           :        12.00000000
 
 Wall time (seconds)                        :       174.72
 
 RMS change in effective potential (target) :  0.330658E-01  ( 0.100000E-05)
 Absolute change in total energy   (target) :  0.818613      ( 0.100000E-06)
 Charge distance                   (target) :  0.129960E-01  ( 0.100000E-04)
 Abs. change in max-nonIBS-force   (target) :   0.00000      ( 0.250000E-05)
 
++++++++++++++++++++++++++++++++++++++++++++++++++++++++++++++++++++++++++++++++
| SCF iteration number :    6                                                  +
++++++++++++++++++++++++++++++++++++++++++++++++++++++++++++++++++++++++++++++++
 Total energy                               :       -76.20555328
 _______________________________________________________________
 Fermi energy                               :         0.22207858
 Kinetic energy                             :        75.95177716
 Coulomb energy                             :      -141.34051488
 Exchange energy                            :       -10.39471388
 Correlation energy                         :        -0.42210167
 
 DOS at Fermi energy (states/Ha/cell)       :         1.23020730
 
 Electron charges :
     core                                   :         4.00000000
     core leakage                           :         0.00130890
     valence                                :         8.00000000
     interstitial                           :         4.71845377
     charge in muffin-tin spheres :
                  atom     1     C          :         3.64077312
                  atom     2     C          :         3.64077312
     total charge in muffin-tins            :         7.28154623
     total charge                           :        12.00000000
 
 Wall time (seconds)                        :       209.53
 
 RMS change in effective potential (target) :  0.646573E-03  ( 0.100000E-05)
 Absolute change in total energy   (target) :  0.267642      ( 0.100000E-06)
 Charge distance                   (target) :  0.434090E-02  ( 0.100000E-04)
 Abs. change in max-nonIBS-force   (target) :   0.00000      ( 0.250000E-05)
 
++++++++++++++++++++++++++++++++++++++++++++++++++++++++++++++++++++++++++++++++
| SCF iteration number :    7                                                  +
++++++++++++++++++++++++++++++++++++++++++++++++++++++++++++++++++++++++++++++++
 Total energy                               :       -76.20629456
 _______________________________________________________________
 Fermi energy                               :         0.22205487
 Kinetic energy                             :        75.95159503
 Coulomb energy                             :      -141.34104525
 Exchange energy                            :       -10.39474518
 Correlation energy                         :        -0.42209916
 
 DOS at Fermi energy (states/Ha/cell)       :         1.23032991
 
 Electron charges :
     core                                   :         4.00000000
     core leakage                           :         0.00130879
     valence                                :         8.00000000
     interstitial                           :         4.71841865
     charge in muffin-tin spheres :
                  atom     1     C          :         3.64079067
                  atom     2     C          :         3.64079067
     total charge in muffin-tins            :         7.28158135
     total charge                           :        12.00000000
 
 Wall time (seconds)                        :       244.14
 
 RMS change in effective potential (target) :  0.158888E-03  ( 0.100000E-05)
 Absolute change in total energy   (target) :  0.741278E-03  ( 0.100000E-06)
 Charge distance                   (target) :  0.192717E-04  ( 0.100000E-04)
 Abs. change in max-nonIBS-force   (target) :   0.00000      ( 0.250000E-05)
 
++++++++++++++++++++++++++++++++++++++++++++++++++++++++++++++++++++++++++++++++
| SCF iteration number :    8                                                  +
++++++++++++++++++++++++++++++++++++++++++++++++++++++++++++++++++++++++++++++++
 Total energy                               :       -76.20700990
 _______________________________________________________________
 Fermi energy                               :         0.22203628
 Kinetic energy                             :        75.95105730
 Coulomb energy                             :      -141.34119071
 Exchange energy                            :       -10.39477800
 Correlation energy                         :        -0.42209849
 
 DOS at Fermi energy (states/Ha/cell)       :         1.23020590
 
 Electron charges :
     core                                   :         4.00000000
     core leakage                           :         0.00130879
     valence                                :         8.00000000
     interstitial                           :         4.71836186
     charge in muffin-tin spheres :
                  atom     1     C          :         3.64081907
                  atom     2     C          :         3.64081907
     total charge in muffin-tins            :         7.28163814
     total charge                           :        12.00000000
 
 Wall time (seconds)                        :       278.77
 
 RMS change in effective potential (target) :  0.229639E-04  ( 0.100000E-05)
 Absolute change in total energy   (target) :  0.715344E-03  ( 0.100000E-06)
 Charge distance                   (target) :  0.135027E-04  ( 0.100000E-04)
 Abs. change in max-nonIBS-force   (target) :   0.00000      ( 0.250000E-05)
 
++++++++++++++++++++++++++++++++++++++++++++++++++++++++++++++++++++++++++++++++
| SCF iteration number :    9                                                  +
++++++++++++++++++++++++++++++++++++++++++++++++++++++++++++++++++++++++++++++++
 Total energy                               :       -76.20689212
 _______________________________________________________________
 Fermi energy                               :         0.22203916
 Kinetic energy                             :        75.95112954
 Coulomb energy                             :      -141.34115073
 Exchange energy                            :       -10.39477226
 Correlation energy                         :        -0.42209867
 
 DOS at Fermi energy (states/Ha/cell)       :         1.23021900
 
 Electron charges :
     core                                   :         4.00000000
     core leakage                           :         0.00130879
     valence                                :         8.00000000
     interstitial                           :         4.71837094
     charge in muffin-tin spheres :
                  atom     1     C          :         3.64081453
                  atom     2     C          :         3.64081453
     total charge in muffin-tins            :         7.28162906
     total charge                           :        12.00000000
 
 Wall time (seconds)                        :       313.44
 
 RMS change in effective potential (target) :  0.154937E-05  ( 0.100000E-05)
 Absolute change in total energy   (target) :  0.117785E-03  ( 0.100000E-06)
 Charge distance                   (target) :  0.180809E-05  ( 0.100000E-04)
 Abs. change in max-nonIBS-force   (target) :   0.00000      ( 0.250000E-05)
 
++++++++++++++++++++++++++++++++++++++++++++++++++++++++++++++++++++++++++++++++
| SCF iteration number :   10                                                  +
++++++++++++++++++++++++++++++++++++++++++++++++++++++++++++++++++++++++++++++++
 Total energy                               :       -76.20689244
 _______________________________________________________________
 Fermi energy                               :         0.22203917
 Kinetic energy                             :        75.95112983
 Coulomb energy                             :      -141.34115131
 Exchange energy                            :       -10.39477229
 Correlation energy                         :        -0.42209867
 
 DOS at Fermi energy (states/Ha/cell)       :         1.23021911
 
 Electron charges :
     core                                   :         4.00000000
     core leakage                           :         0.00130879
     valence                                :         8.00000000
     interstitial                           :         4.71837092
     charge in muffin-tin spheres :
                  atom     1     C          :         3.64081454
                  atom     2     C          :         3.64081454
     total charge in muffin-tins            :         7.28162908
     total charge                           :        12.00000000
 
 Wall time (seconds)                        :       348.06
 
 RMS change in effective potential (target) :  0.233321E-07  ( 0.100000E-05)
 Absolute change in total energy   (target) :  0.326436E-06  ( 0.100000E-06)
 Charge distance                   (target) :  0.160939E-07  ( 0.100000E-04)
 Abs. change in max-nonIBS-force   (target) :   0.00000      ( 0.250000E-05)
 
++++++++++++++++++++++++++++++++++++++++++++++++++++++++++++++++++++++++++++++++
| SCF iteration number :   11                                                  +
++++++++++++++++++++++++++++++++++++++++++++++++++++++++++++++++++++++++++++++++
 Total energy                               :       -76.20689245
 _______________________________________________________________
 Fermi energy                               :         0.22203917
 Kinetic energy                             :        75.95112983
 Coulomb energy                             :      -141.34115132
 Exchange energy                            :       -10.39477229
 Correlation energy                         :        -0.42209867
 
 DOS at Fermi energy (states/Ha/cell)       :         1.23021911
 
 Electron charges :
     core                                   :         4.00000000
     core leakage                           :         0.00130879
     valence                                :         8.00000000
     interstitial                           :         4.71837092
     charge in muffin-tin spheres :
                  atom     1     C          :         3.64081454
                  atom     2     C          :         3.64081454
     total charge in muffin-tins            :         7.28162908
     total charge                           :        12.00000000
 
 Wall time (seconds)                        :       382.67
 
 RMS change in effective potential (target) :  0.144617E-07  ( 0.100000E-05)
 Absolute change in total energy   (target) :  0.542340E-08  ( 0.100000E-06)
 Charge distance                   (target) :  0.942691E-09  ( 0.100000E-04)
 Abs. change in max-nonIBS-force   (target) :   0.00000      ( 0.250000E-05)
 
++++++++++++++++++++++++++++++++++++++++++++++++++++++++++++++++++++++++++++++++
| Convergence targets achieved. Performing final SCF iteration                 +
++++++++++++++++++++++++++++++++++++++++++++++++++++++++++++++++++++++++++++++++
 Total energy                               :       -76.21545305
 _______________________________________________________________
 Fermi energy                               :         0.22203917
 Kinetic energy                             :        75.95112982
 Coulomb energy                             :      -141.34115131
 Exchange energy                            :       -10.39477229
 Correlation energy                         :        -0.42209867
 DFT-D2 dispersion correction               :        -0.00856060
 
 DOS at Fermi energy (states/Ha/cell)       :         1.23021911
 
 Electron charges :
     core                                   :         4.00000000
     core leakage                           :         0.00130879
     valence                                :         8.00000000
     interstitial                           :         4.71837092
     charge in muffin-tin spheres :
                  atom     1     C          :         3.64081454
                  atom     2     C          :         3.64081454
     total charge in muffin-tins            :         7.28162908
     total charge                           :        12.00000000
 
++++++++++++++++++++++++++++++++++++++++++++++++++++++++++++++++++++++++++++++++
| Self-consistent loop stopped                                                 +
++++++++++++++++++++++++++++++++++++++++++++++++++++++++++++++++++++++++++++++++
 STATE.OUT is written
 
--------------------------------------------------------------------------------
| Writing atomic positions and forces                                          -
--------------------------------------------------------------------------------
 
 Atomic positions (lattice) :
 atom     1   C  :     0.00000000    0.00000000    0.00000000
 atom     2   C  :     0.33333333    0.33333333    0.00000000
 
 Total atomic forces including IBS (cartesian) :
 atom     1   C  :     0.00000000    0.00000000    0.00000000
 atom     2   C  :     0.00000000    0.00000000    0.00000000
 
 Atomic force components including IBS (cartesian) :
 atom     1   C  :     0.00000000    0.00000000    0.00000000   HF force
                 :     0.00000000    0.00000000    0.00000000   core correction
                 :     0.00000000    0.00000000    0.00000000   IBS correction
                 :     0.00000000    0.00000000    0.00000000   DFT-D2 force
 atom     2   C  :     0.00000000    0.00000000    0.00000000   HF force
                 :     0.00000000    0.00000000    0.00000000   core correction
                 :     0.00000000    0.00000000    0.00000000   IBS correction
                 :     0.00000000    0.00000000    0.00000000   DFT-D2 force
 
********************************************************************************
| Groundstate module stopped                                                   *
********************************************************************************
 
********************************************************************************
| Structure-optimization module started                                        *
********************************************************************************
 Output level for this task is set to normal
 
 Maximum displacement tau_BFGS   is         :         0.3000
 Maximum displacement tau_newton is         :         0.8000
 Maximum force target reached already at the initial configuration
 
********************************************************************************
| Structure-optimization module stopped                                        *
********************************************************************************
 
 Total time spent (seconds)                 :       447.75
 
================================================================================
| EXCITING BORON stopped                                                       =
================================================================================
