================================================================================
| EXCITING CARBON started                                                      =
| version hash id:                                                             =
|                                                                              =
| Date (DD-MM-YYYY) : 22-12-2016                                               =
| Time (hh:mm:ss)   : 13:36:39                                                 =
|                                                                              =
| All units are atomic (Hartree, Bohr, etc.)                                   =
================================================================================

********************************************************************************
| Structural optimisation starting from atomic densities                       *
********************************************************************************

++++++++++++++++++++++++++++++++++++++++++++++++++++++++++++++++++++++++++++++++
| Starting initialization                                                      +
++++++++++++++++++++++++++++++++++++++++++++++++++++++++++++++++++++++++++++++++

 Lattice vectors (cartesian) :
      3.2889989805      3.2889989805     -0.1357574758
      3.2889989805     -0.1357574758      3.2889989805
     -0.1357574758      3.2889989805      3.2889989805

 Reciprocal lattice vectors (cartesian) :
      0.9366492321      0.9366492321     -0.8979878837
      0.9366492321     -0.8979878837      0.9366492321
     -0.8979878837      0.9366492321      0.9366492321

 Unit cell volume                           :      75.5607602506
 Brillouin zone volume                      :       3.2827913936

 Species :    1 (C)
     parameters loaded from                 :    C.xml
     name                                   :    carbon
     nuclear charge                         :      -6.00000000
     electronic charge                      :       6.00000000
     atomic mass                            :   21894.16673000
     muffin-tin radius                      :       1.30000000
     # of radial points in muffin-tin       :     250

     atomic positions (lattice) :
       1 :   0.00000000  0.00000000  0.00000000
       2 :   0.25000000  0.25000000  0.25000000

 Total number of atoms per unit cell        :       2

 Spin treatment                             :    spin-unpolarised

 Number of Bravais lattice symmetries       :      12
 Number of crystal symmetries               :      12

 k-point grid                               :       6    6    6
 Total number of k-points                   :      32
 k-point set is reduced with crystal symmetries

 R^MT_min * |G+k|_max (rgkmax)              :       7.00000000
 Species with R^MT_min                      :       1 (C)
 Maximum |G+k| for APW functions            :       5.38461538
 Maximum |G| for potential and density      :      18.00000000

 G-vector grid sizes                        :      27    27    27
 Total number of G-vectors                  :    7419

 Maximum angular momentum used for
     APW functions                          :       8
     computing H and O matrix elements      :       8
     potential and density                  :       8
     inner part of muffin-tin               :       2

 Total nuclear charge                       :     -12.00000000
 Total electronic charge                    :      12.00000000
 Total core charge                          :       4.00000000
 Total valence charge                       :       8.00000000

 Number of empty states                     :       5
 Total number of valence states             :      10

 Maximum Hamiltonian size                   :     214
 Maximum number of plane-waves              :     206
 Total number of local-orbitals             :       8

 Exchange-correlation type                  :      22
     PBEsol, Phys. Rev. Lett. 100, 136406 (2008)
     Generalised gradient approximation (GGA)

 Smearing scheme                            :    Gaussian
 Smearing width                             :       0.00010000

 Using multisecant Broyden potential mixing

++++++++++++++++++++++++++++++++++++++++++++++++++++++++++++++++++++++++++++++++
| Ending initialization                                                        +
++++++++++++++++++++++++++++++++++++++++++++++++++++++++++++++++++++++++++++++++

********************************************************************************
| Groundstate module started                                                   *
********************************************************************************
 Output level for this task is set to normal

++++++++++++++++++++++++++++++++++++++++++++++++++++++++++++++++++++++++++++++++
| Self-consistent loop started                                                 +
++++++++++++++++++++++++++++++++++++++++++++++++++++++++++++++++++++++++++++++++
 Density and potential initialised from atomic data


++++++++++++++++++++++++++++++++++++++++++++++++++++++++++++++++++++++++++++++++
| SCF iteration number :    1                                                  +
++++++++++++++++++++++++++++++++++++++++++++++++++++++++++++++++++++++++++++++++
 Total energy                               :       -76.84789880
 _______________________________________________________________
 Fermi energy                               :         0.48598752
 Kinetic energy                             :        75.05249152
 Coulomb energy                             :      -141.30582318
 Exchange energy                            :       -10.09486026
 Correlation energy                         :        -0.49970687

 DOS at Fermi energy (states/Ha/cell)       :         0.00000000

 Electron charges :
     core                                   :         4.00000000
     core leakage                           :         0.00056822
     valence                                :         8.00000000
     interstitial                           :         4.01091438
     charge in muffin-tin spheres :
                  atom     1     C          :         3.99454281
                  atom     2     C          :         3.99454281
     total charge in muffin-tins            :         7.98908562
     total charge                           :        12.00000000

 Estimated fundamental gap                  :         0.17143225
        valence-band maximum at    1      0.0000  0.0000  0.0000
     conduction-band minimum at   10      0.3333  0.3333  0.0000

 Wall time (seconds)                        :         6.41

++++++++++++++++++++++++++++++++++++++++++++++++++++++++++++++++++++++++++++++++
| SCF iteration number :    2                                                  +
++++++++++++++++++++++++++++++++++++++++++++++++++++++++++++++++++++++++++++++++
 Total energy                               :       -76.52057392
 _______________________________________________________________
 Fermi energy                               :         0.49709901
 Kinetic energy                             :        75.23393568
 Coulomb energy                             :      -141.17704869
 Exchange energy                            :       -10.07660395
 Correlation energy                         :        -0.50085696

 DOS at Fermi energy (states/Ha/cell)       :         0.00000000

 Electron charges :
     core                                   :         4.00000000
     core leakage                           :         0.00057232
     valence                                :         8.00000000
     interstitial                           :         4.05003610
     charge in muffin-tin spheres :
                  atom     1     C          :         3.97498195
                  atom     2     C          :         3.97498195
     total charge in muffin-tins            :         7.94996390
     total charge                           :        12.00000000

 Estimated fundamental gap                  :         0.16334092
        valence-band maximum at    1      0.0000  0.0000  0.0000
     conduction-band minimum at   10      0.3333  0.3333  0.0000

 Wall time (seconds)                        :        12.13

 RMS change in effective potential (target) :   2.49714      ( 0.100000E-05)
 Absolute change in total energy   (target) :  0.327325      ( 0.100000E-05)
 Charge distance                   (target) :  0.746895E-02  ( 0.100000E-04)
 Abs. change in max-nonIBS-force   (target) :  0.489587E-01  ( 0.500000E-04)

++++++++++++++++++++++++++++++++++++++++++++++++++++++++++++++++++++++++++++++++
| SCF iteration number :    3                                                  +
++++++++++++++++++++++++++++++++++++++++++++++++++++++++++++++++++++++++++++++++
 Total energy                               :       -76.28144457
 _______________________________________________________________
 Fermi energy                               :         0.50479886
 Kinetic energy                             :        75.36642968
 Coulomb energy                             :      -141.08306228
 Exchange energy                            :       -10.06307436
 Correlation energy                         :        -0.50173761

 DOS at Fermi energy (states/Ha/cell)       :         0.00000000

 Electron charges :
     core                                   :         4.00000000
     core leakage                           :         0.00057503
     valence                                :         8.00000000
     interstitial                           :         4.07973387
     charge in muffin-tin spheres :
                  atom     1     C          :         3.96013306
                  atom     2     C          :         3.96013306
     total charge in muffin-tins            :         7.92026613
     total charge                           :        12.00000000

 Estimated fundamental gap                  :         0.15609484
        valence-band maximum at    1      0.0000  0.0000  0.0000
     conduction-band minimum at   13      0.5000  0.5000  0.0000

 Wall time (seconds)                        :        17.79

 RMS change in effective potential (target) :   1.83008      ( 0.100000E-05)
 Absolute change in total energy   (target) :  0.239129      ( 0.100000E-05)
 Charge distance                   (target) :  0.569860E-02  ( 0.100000E-04)
 Abs. change in max-nonIBS-force   (target) :  0.245081E-01  ( 0.500000E-04)

++++++++++++++++++++++++++++++++++++++++++++++++++++++++++++++++++++++++++++++++
| SCF iteration number :    4                                                  +
++++++++++++++++++++++++++++++++++++++++++++++++++++++++++++++++++++++++++++++++
 Total energy                               :       -76.02336636
 _______________________________________________________________
 Fermi energy                               :         0.51417425
 Kinetic energy                             :        75.52010178
 Coulomb energy                             :      -140.99432649
 Exchange energy                            :       -10.04609313
 Correlation energy                         :        -0.50304852

 DOS at Fermi energy (states/Ha/cell)       :         0.00000000

 Electron charges :
     core                                   :         4.00000000
     core leakage                           :         0.00057372
     valence                                :         8.00000000
     interstitial                           :         4.12251409
     charge in muffin-tin spheres :
                  atom     1     C          :         3.93874296
                  atom     2     C          :         3.93874296
     total charge in muffin-tins            :         7.87748591
     total charge                           :        12.00000000

 Estimated fundamental gap                  :         0.14302600
        valence-band maximum at    1      0.0000  0.0000  0.0000
     conduction-band minimum at   13      0.5000  0.5000  0.0000

 Wall time (seconds)                        :        23.44

 RMS change in effective potential (target) :  0.457083E-01  ( 0.100000E-05)
 Absolute change in total energy   (target) :  0.258078      ( 0.100000E-05)
 Charge distance                   (target) :  0.850818E-02  ( 0.100000E-04)
 Abs. change in max-nonIBS-force   (target) :  0.187514E-01  ( 0.500000E-04)

++++++++++++++++++++++++++++++++++++++++++++++++++++++++++++++++++++++++++++++++
| SCF iteration number :    5                                                  +
++++++++++++++++++++++++++++++++++++++++++++++++++++++++++++++++++++++++++++++++
 Total energy                               :       -75.82871418
 _______________________________________________________________
 Fermi energy                               :         0.51869364
 Kinetic energy                             :        75.61690094
 Coulomb energy                             :      -140.90582636
 Exchange energy                            :       -10.03619197
 Correlation energy                         :        -0.50359680

 DOS at Fermi energy (states/Ha/cell)       :         0.00000000

 Electron charges :
     core                                   :         4.00000000
     core leakage                           :         0.00057839
     valence                                :         8.00000000
     interstitial                           :         4.14159232
     charge in muffin-tin spheres :
                  atom     1     C          :         3.92920384
                  atom     2     C          :         3.92920384
     total charge in muffin-tins            :         7.85840768
     total charge                           :        12.00000000

 Estimated fundamental gap                  :         0.13832031
        valence-band maximum at    1      0.0000  0.0000  0.0000
     conduction-band minimum at   13      0.5000  0.5000  0.0000

 Wall time (seconds)                        :        29.10

 RMS change in effective potential (target) :  0.235228E-01  ( 0.100000E-05)
 Absolute change in total energy   (target) :  0.194652      ( 0.100000E-05)
 Charge distance                   (target) :  0.358120E-02  ( 0.100000E-04)
 Abs. change in max-nonIBS-force   (target) :  0.984974E-02  ( 0.500000E-04)

++++++++++++++++++++++++++++++++++++++++++++++++++++++++++++++++++++++++++++++++
| SCF iteration number :    6                                                  +
++++++++++++++++++++++++++++++++++++++++++++++++++++++++++++++++++++++++++++++++
 Total energy                               :       -75.88857435
 _______________________________________________________________
 Fermi energy                               :         0.51737583
 Kinetic energy                             :        75.58764943
 Coulomb energy                             :      -140.93350255
 Exchange energy                            :       -10.03929723
 Correlation energy                         :        -0.50342400

 DOS at Fermi energy (states/Ha/cell)       :         0.00000000

 Electron charges :
     core                                   :         4.00000000
     core leakage                           :         0.00057695
     valence                                :         8.00000000
     interstitial                           :         4.13560881
     charge in muffin-tin spheres :
                  atom     1     C          :         3.93219560
                  atom     2     C          :         3.93219560
     total charge in muffin-tins            :         7.86439119
     total charge                           :        12.00000000

 Estimated fundamental gap                  :         0.13981203
        valence-band maximum at    1      0.0000  0.0000  0.0000
     conduction-band minimum at   13      0.5000  0.5000  0.0000

 Wall time (seconds)                        :        34.78

 RMS change in effective potential (target) :  0.362526E-03  ( 0.100000E-05)
 Absolute change in total energy   (target) :  0.598602E-01  ( 0.100000E-05)
 Charge distance                   (target) :  0.113363E-02  ( 0.100000E-04)
 Abs. change in max-nonIBS-force   (target) :  0.501529E-02  ( 0.500000E-04)

++++++++++++++++++++++++++++++++++++++++++++++++++++++++++++++++++++++++++++++++
| SCF iteration number :    7                                                  +
++++++++++++++++++++++++++++++++++++++++++++++++++++++++++++++++++++++++++++++++
 Total energy                               :       -75.88992578
 _______________________________________________________________
 Fermi energy                               :         0.51733283
 Kinetic energy                             :        75.58696310
 Coulomb energy                             :      -140.93410821
 Exchange energy                            :       -10.03936004
 Correlation energy                         :        -0.50342063

 DOS at Fermi energy (states/Ha/cell)       :         0.00000000

 Electron charges :
     core                                   :         4.00000000
     core leakage                           :         0.00057691
     valence                                :         8.00000000
     interstitial                           :         4.13549134
     charge in muffin-tin spheres :
                  atom     1     C          :         3.93225433
                  atom     2     C          :         3.93225433
     total charge in muffin-tins            :         7.86450866
     total charge                           :        12.00000000

 Estimated fundamental gap                  :         0.13984035
        valence-band maximum at    1      0.0000  0.0000  0.0000
     conduction-band minimum at   13      0.5000  0.5000  0.0000

 Wall time (seconds)                        :        40.46

 RMS change in effective potential (target) :  0.675595E-04  ( 0.100000E-05)
 Absolute change in total energy   (target) :  0.135143E-02  ( 0.100000E-05)
 Charge distance                   (target) :  0.231256E-04  ( 0.100000E-04)
 Abs. change in max-nonIBS-force   (target) :  0.222904E-04  ( 0.500000E-04)

++++++++++++++++++++++++++++++++++++++++++++++++++++++++++++++++++++++++++++++++
| SCF iteration number :    8                                                  +
++++++++++++++++++++++++++++++++++++++++++++++++++++++++++++++++++++++++++++++++
 Total energy                               :       -75.88985818
 _______________________________________________________________
 Fermi energy                               :         0.51733810
 Kinetic energy                             :        75.58698923
 Coulomb energy                             :      -140.93406963
 Exchange energy                            :       -10.03935698
 Correlation energy                         :        -0.50342080

 DOS at Fermi energy (states/Ha/cell)       :         0.00000000

 Electron charges :
     core                                   :         4.00000000
     core leakage                           :         0.00057692
     valence                                :         8.00000000
     interstitial                           :         4.13549590
     charge in muffin-tin spheres :
                  atom     1     C          :         3.93225205
                  atom     2     C          :         3.93225205
     total charge in muffin-tins            :         7.86450410
     total charge                           :        12.00000000

 Estimated fundamental gap                  :         0.13983868
        valence-band maximum at    1      0.0000  0.0000  0.0000
     conduction-band minimum at   13      0.5000  0.5000  0.0000

 Wall time (seconds)                        :        46.10

 RMS change in effective potential (target) :  0.469421E-05  ( 0.100000E-05)
 Absolute change in total energy   (target) :  0.676050E-04  ( 0.100000E-05)
 Charge distance                   (target) :  0.515907E-05  ( 0.100000E-04)
 Abs. change in max-nonIBS-force   (target) :  0.537079E-04  ( 0.500000E-04)

++++++++++++++++++++++++++++++++++++++++++++++++++++++++++++++++++++++++++++++++
| SCF iteration number :    9                                                  +
++++++++++++++++++++++++++++++++++++++++++++++++++++++++++++++++++++++++++++++++
 Total energy                               :       -75.88983386
 _______________________________________________________________
 Fermi energy                               :         0.51733779
 Kinetic energy                             :        75.58700242
 Coulomb energy                             :      -140.93405969
 Exchange energy                            :       -10.03935573
 Correlation energy                         :        -0.50342086

 DOS at Fermi energy (states/Ha/cell)       :         0.00000000

 Electron charges :
     core                                   :         4.00000000
     core leakage                           :         0.00057692
     valence                                :         8.00000000
     interstitial                           :         4.13549842
     charge in muffin-tin spheres :
                  atom     1     C          :         3.93225079
                  atom     2     C          :         3.93225079
     total charge in muffin-tins            :         7.86450158
     total charge                           :        12.00000000

 Estimated fundamental gap                  :         0.13983823
        valence-band maximum at    1      0.0000  0.0000  0.0000
     conduction-band minimum at   13      0.5000  0.5000  0.0000

 Wall time (seconds)                        :        51.75

 RMS change in effective potential (target) :  0.103703E-05  ( 0.100000E-05)
 Absolute change in total energy   (target) :  0.243181E-04  ( 0.100000E-05)
 Charge distance                   (target) :  0.131972E-05  ( 0.100000E-04)
 Abs. change in max-nonIBS-force   (target) :  0.186809E-04  ( 0.500000E-04)

++++++++++++++++++++++++++++++++++++++++++++++++++++++++++++++++++++++++++++++++
| SCF iteration number :   10                                                  +
++++++++++++++++++++++++++++++++++++++++++++++++++++++++++++++++++++++++++++++++
 Total energy                               :       -75.88983384
 _______________________________________________________________
 Fermi energy                               :         0.51733782
 Kinetic energy                             :        75.58700259
 Coulomb energy                             :      -140.93405984
 Exchange energy                            :       -10.03935573
 Correlation energy                         :        -0.50342086

 DOS at Fermi energy (states/Ha/cell)       :         0.00000000

 Electron charges :
     core                                   :         4.00000000
     core leakage                           :         0.00057692
     valence                                :         8.00000000
     interstitial                           :         4.13549845
     charge in muffin-tin spheres :
                  atom     1     C          :         3.93225078
                  atom     2     C          :         3.93225078
     total charge in muffin-tins            :         7.86450155
     total charge                           :        12.00000000

 Estimated fundamental gap                  :         0.13983822
        valence-band maximum at    1      0.0000  0.0000  0.0000
     conduction-band minimum at   13      0.5000  0.5000  0.0000

 Wall time (seconds)                        :        57.39

 RMS change in effective potential (target) :  0.148597E-06  ( 0.100000E-05)
 Absolute change in total energy   (target) :  0.153439E-07  ( 0.100000E-05)
 Charge distance                   (target) :  0.184840E-07  ( 0.100000E-04)
 Abs. change in max-nonIBS-force   (target) :  0.235289E-06  ( 0.500000E-04)

++++++++++++++++++++++++++++++++++++++++++++++++++++++++++++++++++++++++++++++++
| SCF iteration number :   11                                                  +
++++++++++++++++++++++++++++++++++++++++++++++++++++++++++++++++++++++++++++++++
 Total energy                               :       -75.88983397
 _______________________________________________________________
 Fermi energy                               :         0.51733782
 Kinetic energy                             :        75.58700251
 Coulomb energy                             :      -140.93405987
 Exchange energy                            :       -10.03935574
 Correlation energy                         :        -0.50342086

 DOS at Fermi energy (states/Ha/cell)       :         0.00000000

 Electron charges :
     core                                   :         4.00000000
     core leakage                           :         0.00057692
     valence                                :         8.00000000
     interstitial                           :         4.13549843
     charge in muffin-tin spheres :
                  atom     1     C          :         3.93225079
                  atom     2     C          :         3.93225079
     total charge in muffin-tins            :         7.86450157
     total charge                           :        12.00000000

 Estimated fundamental gap                  :         0.13983822
        valence-band maximum at    1      0.0000  0.0000  0.0000
     conduction-band minimum at   13      0.5000  0.5000  0.0000

 Wall time (seconds)                        :        63.04

 RMS change in effective potential (target) :  0.386570E-07  ( 0.100000E-05)
 Absolute change in total energy   (target) :  0.121285E-06  ( 0.100000E-05)
 Charge distance                   (target) :  0.311010E-08  ( 0.100000E-04)
 Abs. change in max-nonIBS-force   (target) :  0.975068E-08  ( 0.500000E-04)
                                                                                
++++++++++++++++++++++++++++++++++++++++++++++++++++++++++++++++++++++++++++++++
| Convergency criteria checked for the last 2 iterations                       +
| Convergence targets achieved. Performing final SCF iteration                 +
++++++++++++++++++++++++++++++++++++++++++++++++++++++++++++++++++++++++++++++++
 Total energy                               :       -75.88983397
 _______________________________________________________________
 Fermi energy                               :         0.51733782
 Kinetic energy                             :        75.58700250
 Coulomb energy                             :      -140.93405988
 Exchange energy                            :       -10.03935574
 Correlation energy                         :        -0.50342086

 DOS at Fermi energy (states/Ha/cell)       :         0.00000000

 Electron charges :
     core                                   :         4.00000000
     core leakage                           :         0.00057692
     valence                                :         8.00000000
     interstitial                           :         4.13549843
     charge in muffin-tin spheres :
                  atom     1     C          :         3.93225079
                  atom     2     C          :         3.93225079
     total charge in muffin-tins            :         7.86450157
     total charge                           :        12.00000000

 Estimated fundamental gap                  :         0.13983822
        valence-band maximum at    1      0.0000  0.0000  0.0000
     conduction-band minimum at   13      0.5000  0.5000  0.0000

++++++++++++++++++++++++++++++++++++++++++++++++++++++++++++++++++++++++++++++++
| Self-consistent loop stopped                                                 +
++++++++++++++++++++++++++++++++++++++++++++++++++++++++++++++++++++++++++++++++
 STATE.OUT is written

--------------------------------------------------------------------------------
| Writing atomic positions and forces                                          -
--------------------------------------------------------------------------------

 Atomic positions (lattice) :
 atom     1   C  :     0.00000000    0.00000000    0.00000000
 atom     2   C  :     0.25000000    0.25000000    0.25000000

 Total atomic forces including IBS (cartesian) :
 atom     1   C  :    -0.00588023   -0.00588023   -0.00588023
 atom     2   C  :     0.00588023    0.00588023    0.00588023

 Atomic force components including IBS (cartesian) :
 atom     1   C  :     0.00003641    0.00003641    0.00003641   HF force
                 :    -0.00611051   -0.00611051   -0.00611051   core correction
                 :     0.00019387    0.00019387    0.00019387   IBS correction
 atom     2   C  :    -0.00003641   -0.00003641   -0.00003641   HF force
                 :     0.00611051    0.00611051    0.00611051   core correction
                 :    -0.00019387   -0.00019387   -0.00019387   IBS correction

********************************************************************************
| Groundstate module stopped                                                   *
********************************************************************************

********************************************************************************
| Structure-optimization module started                                        *
********************************************************************************
 Output level for this task is set to normal

 Maximum displacement tau_BFGS   is         :         0.3000
 Maximum displacement tau_newton is         :         0.2000

++++++++++++++++++++++++++++++++++++++++++++++++++++++++++++++++++++++++++++++++
| Use L-BFGS-B method for optimizing atomic positions                          +
++++++++++++++++++++++++++++++++++++++++++++++++++++++++++++++++++++++++++++++++

--------------------------------------------------------------------------------
| Optimization step 0: Initialize optimization                                 -
--------------------------------------------------------------------------------
 Maximum force magnitude           (target) :         0.01018487  (  0.00020000)
 Total energy at this optimization step     :       -75.88983397

 Atomic positions at this step (lattice) :
 atom     1   C  :     0.00000000    0.00000000    0.00000000
 atom     2   C  :     0.25000000    0.25000000    0.25000000

 Total atomic forces including IBS (cartesian) :
 atom     1   C  :    -0.00588023   -0.00588023   -0.00588023
 atom     2   C  :     0.00588023    0.00588023    0.00588023

--------------------------------------------------------------------------------
| Optimization step    1    (method = bfgs)                                    -
--------------------------------------------------------------------------------
 Number of investigated configurations      :         1
 Number of total scf iterations             :        16
 Maximum force magnitude           (target) :         0.00069735  (  0.00020000)
 Total energy at this optimization step     :       -75.88994258

 Atomic positions at this step (lattice) :
 atom     1   C  :     0.00000000    0.00000000    0.00000000
 atom     2   C  :     0.25182552    0.25182552    0.25182552

 Total atomic forces including IBS (cartesian) :
 atom     1   C  :    -0.00040262   -0.00040262   -0.00040262
 atom     2   C  :     0.00040262    0.00040262    0.00040262

 Time spent in this optimization step       :        94.43 seconds

--------------------------------------------------------------------------------
| Optimization step    2    (method = bfgs)                                    -
--------------------------------------------------------------------------------
 Number of investigated configurations      :         1
 Number of total scf iterations             :        10
 Maximum force magnitude           (target) :         0.00001526  (  0.00020000)
 Total energy at this optimization step     :       -75.88994300

 Atomic positions at this step (lattice) :
 atom     1   C  :     0.00000000    0.00000000    0.00000000
 atom     2   C  :     0.25195970    0.25195970    0.25195970

 Total atomic forces including IBS (cartesian) :
 atom     1   C  :    -0.00000881   -0.00000881   -0.00000881
 atom     2   C  :     0.00000881    0.00000881    0.00000881

 Time spent in this optimization step       :        58.11 seconds

++++++++++++++++++++++++++++++++++++++++++++++++++++++++++++++++++++++++++++++++
| Force convergence target achieved                                            +
++++++++++++++++++++++++++++++++++++++++++++++++++++++++++++++++++++++++++++++++
 Total energy                               :       -75.88994300
 _______________________________________________________________
 Fermi energy                               :         0.51844501
 Kinetic energy                             :        75.58234096
 Coulomb energy                             :      -140.93030272
 Exchange energy                            :       -10.03855659
 Correlation energy                         :        -0.50342464

 DOS at Fermi energy (states/Ha/cell)       :         0.00000000

 Electron charges :
     core                                   :         4.00000000
     core leakage                           :         0.00057679
     valence                                :         8.00000000
     interstitial                           :         4.13845389
     charge in muffin-tin spheres :
                  atom     1     C          :         3.93077306
                  atom     2     C          :         3.93077306
     total charge in muffin-tins            :         7.86154611
     total charge                           :        12.00000000

 Optimized atomic positions (lattice) :
 atom     1   C  :     0.00000000    0.00000000    0.00000000
 atom     2   C  :     0.25195970    0.25195970    0.25195970

 Total atomic forces including IBS (cartesian) :
 atom     1   C  :    -0.00000881   -0.00000881   -0.00000881
 atom     2   C  :     0.00000881    0.00000881    0.00000881

 Atomic force components including IBS (cartesian) :
 atom     1   C  :     0.00642451    0.00642451    0.00642451   HF force
                 :    -0.00650173   -0.00650173   -0.00650173   core correction
                 :     0.00006841    0.00006841    0.00006841   IBS correction
 atom     2   C  :    -0.00642451   -0.00642451   -0.00642451   HF force
                 :     0.00650173    0.00650173    0.00650173   core correction
                 :    -0.00006841   -0.00006841   -0.00006841   IBS correction

********************************************************************************
| Structure-optimization module stopped                                        *
********************************************************************************

 Total time spent (seconds)                 :       223.00

================================================================================
| EXCITING CARBON stopped                                                      =
================================================================================
