================================================================================
| EXCITING BORON started                                                       =
| version hash id:                                                             =
| MPI version using     16 processor(s)                                        =
|                                                                              =
| Date (DD-MM-YYYY) : 12-08-2015                                               =
| Time (hh:mm:ss)   : 21:28:21                                                 =
|                                                                              =
| All units are atomic (Hartree, Bohr, etc.)                                   =
================================================================================
 
********************************************************************************
| Structural optimisation starting from atomic densities                       *
********************************************************************************
 
++++++++++++++++++++++++++++++++++++++++++++++++++++++++++++++++++++++++++++++++
| Starting initialization                                                      +
++++++++++++++++++++++++++++++++++++++++++++++++++++++++++++++++++++++++++++++++
 
 Lattice vectors (cartesian) :
      2.3036124718      3.9899738420      0.0000000000
     -2.3036124718      3.9899738420      0.0000000000
      0.0000000000      0.0000000000      6.5761020000
 
 Reciprocal lattice vectors (cartesian) :
      1.3637678612      0.7873717418      0.0000000000
     -1.3637678612      0.7873717418      0.0000000000
      0.0000000000      0.0000000000      0.9554573982
 
 Unit cell volume                           :     120.8865563259
 Brillouin zone volume                      :       2.0519255489
 
 Species :    1 (C)
     parameters loaded from                 :    C.xml
     name                                   :    carbon
     nuclear charge                         :      -6.00000000
     electronic charge                      :       6.00000000
     atomic mass                            :   21894.16673000
     muffin-tin radius                      :       1.20000000
     # of radial points in muffin-tin       :     250
 
     atomic positions (lattice) :
       1 :   0.00000000  0.00000000  0.00000000
       2 :   0.33333333  0.33333333  0.00000000
 
 Total number of atoms per unit cell        :       2
 
 Spin treatment                             :    spin-unpolarised
 
 Number of Bravais lattice symmetries       :      24
 Number of crystal symmetries               :      24
 
 k-point grid                               :      34   34   24
 Total number of k-points                   :    1482
 k-point set is reduced with crystal symmetries
 
 R^MT_min * |G+k|_max (rgkmax)              :       8.00000000
 Species with R^MT_min                      :       1 (C)
 Maximum |G+k| for APW functions            :       6.66666667
 Maximum |G| for potential and density      :      20.00000000
 
 G-vector grid sizes                        :      30    30    45
 Total number of G-vectors                  :   16343
 
 Maximum angular momentum used for
     APW functions                          :       8
     computing H and O matrix elements      :       8
     potential and density                  :       8
     inner part of muffin-tin               :       2
 
 Total nuclear charge                       :     -12.00000000
 Total electronic charge                    :      12.00000000
 Total core charge                          :       4.00000000
 Total valence charge                       :       8.00000000
 
 Number of empty states                     :       5
 Total number of valence states             :      10
 
 Maximum Hamiltonian size                   :     634
 Maximum number of plane-waves              :     626
 Total number of local-orbitals             :       8
 
 Exchange-correlation type                  :      20
     Perdew-Burke-Ernzerhof, Phys. Rev. Lett. 77, 3865 (1996)
     Generalised gradient approximation (GGA)
 
 Smearing scheme                            :    Gaussian
 Smearing width                             :       0.01000000
 
 Using multisecant Broyden potential mixing
 
++++++++++++++++++++++++++++++++++++++++++++++++++++++++++++++++++++++++++++++++
| Ending initialization                                                        +
++++++++++++++++++++++++++++++++++++++++++++++++++++++++++++++++++++++++++++++++
 
********************************************************************************
| Groundstate module started                                                   *
********************************************************************************
 Output level for this task is set to normal
 
++++++++++++++++++++++++++++++++++++++++++++++++++++++++++++++++++++++++++++++++
| Self-consistent loop started                                                 +
++++++++++++++++++++++++++++++++++++++++++++++++++++++++++++++++++++++++++++++++
 Density and potential initialised from atomic data
 
 
++++++++++++++++++++++++++++++++++++++++++++++++++++++++++++++++++++++++++++++++
| SCF iteration number :    1                                                  +
++++++++++++++++++++++++++++++++++++++++++++++++++++++++++++++++++++++++++++++++
 Total energy                               :       -78.47776406
 _______________________________________________________________
 Fermi energy                               :         0.16538862
 Kinetic energy                             :        74.51384394
 Coulomb energy                             :      -142.04210331
 Exchange energy                            :       -10.52886471
 Correlation energy                         :        -0.42063997
 
 DOS at Fermi energy (states/Ha/cell)       :         0.88329084
 
 Electron charges :
     core                                   :         4.00000000
     core leakage                           :         0.00128500
     valence                                :         8.00000000
     interstitial                           :         4.48196349
     charge in muffin-tin spheres :
                  atom     1     C          :         3.75901826
                  atom     2     C          :         3.75901826
     total charge in muffin-tins            :         7.51803651
     total charge                           :        12.00000000
 
 Wall time (seconds)                        :        35.87
 
++++++++++++++++++++++++++++++++++++++++++++++++++++++++++++++++++++++++++++++++
| SCF iteration number :    2                                                  +
++++++++++++++++++++++++++++++++++++++++++++++++++++++++++++++++++++++++++++++++
 Total energy                               :       -77.64424536
 _______________________________________________________________
 Fermi energy                               :         0.18867151
 Kinetic energy                             :        75.08229005
 Coulomb energy                             :      -141.81589099
 Exchange energy                            :       -10.48907191
 Correlation energy                         :        -0.42157251
 
 DOS at Fermi energy (states/Ha/cell)       :         0.94377093
 
 Electron charges :
     core                                   :         4.00000000
     core leakage                           :         0.00129822
     valence                                :         8.00000000
     interstitial                           :         4.54865250
     charge in muffin-tin spheres :
                  atom     1     C          :         3.72567375
                  atom     2     C          :         3.72567375
     total charge in muffin-tins            :         7.45134750
     total charge                           :        12.00000000
 
 Wall time (seconds)                        :        70.39
 
 RMS change in effective potential (target) :   1.61325      ( 0.100000E-05)
 Absolute change in total energy   (target) :  0.833519      ( 0.100000E-06)
 Charge distance                   (target) :  0.134555E-01  ( 0.100000E-04)
 Abs. change in max-nonIBS-force   (target) :   0.00000      ( 0.250000E-05)
 
++++++++++++++++++++++++++++++++++++++++++++++++++++++++++++++++++++++++++++++++
| SCF iteration number :    3                                                  +
++++++++++++++++++++++++++++++++++++++++++++++++++++++++++++++++++++++++++++++++
 Total energy                               :       -77.05332665
 _______________________________________________________________
 Fermi energy                               :         0.20454044
 Kinetic energy                             :        75.48136893
 Coulomb energy                             :      -141.65220038
 Exchange energy                            :       -10.46018600
 Correlation energy                         :        -0.42230920
 
 DOS at Fermi energy (states/Ha/cell)       :         0.99312808
 
 Electron charges :
     core                                   :         4.00000000
     core leakage                           :         0.00130678
     valence                                :         8.00000000
     interstitial                           :         4.59731536
     charge in muffin-tin spheres :
                  atom     1     C          :         3.70134232
                  atom     2     C          :         3.70134232
     total charge in muffin-tins            :         7.40268464
     total charge                           :        12.00000000
 
 Wall time (seconds)                        :       105.30
 
 RMS change in effective potential (target) :   1.19117      ( 0.100000E-05)
 Absolute change in total energy   (target) :  0.590919      ( 0.100000E-06)
 Charge distance                   (target) :  0.993593E-02  ( 0.100000E-04)
 Abs. change in max-nonIBS-force   (target) :   0.00000      ( 0.250000E-05)
 
++++++++++++++++++++++++++++++++++++++++++++++++++++++++++++++++++++++++++++++++
| SCF iteration number :    4                                                  +
++++++++++++++++++++++++++++++++++++++++++++++++++++++++++++++++++++++++++++++++
 Total energy                               :       -76.79257000
 _______________________________________________________________
 Fermi energy                               :         0.21075354
 Kinetic energy                             :        75.67207677
 Coulomb energy                             :      -141.59749998
 Exchange energy                            :       -10.44434938
 Correlation energy                         :        -0.42279741
 
 DOS at Fermi energy (states/Ha/cell)       :         1.02653740
 
 Electron charges :
     core                                   :         4.00000000
     core leakage                           :         0.00129918
     valence                                :         8.00000000
     interstitial                           :         4.62874100
     charge in muffin-tin spheres :
                  atom     1     C          :         3.68562950
                  atom     2     C          :         3.68562950
     total charge in muffin-tins            :         7.37125900
     total charge                           :        12.00000000
 
 Wall time (seconds)                        :       139.87
 
 RMS change in effective potential (target) :  0.705643E-01  ( 0.100000E-05)
 Absolute change in total energy   (target) :  0.260757      ( 0.100000E-06)
 Charge distance                   (target) :  0.692893E-02  ( 0.100000E-04)
 Abs. change in max-nonIBS-force   (target) :   0.00000      ( 0.250000E-05)
 
++++++++++++++++++++++++++++++++++++++++++++++++++++++++++++++++++++++++++++++++
| SCF iteration number :    5                                                  +
++++++++++++++++++++++++++++++++++++++++++++++++++++++++++++++++++++++++++++++++
 Total energy                               :       -75.92720986
 _______________________________________________________________
 Fermi energy                               :         0.23293960
 Kinetic energy                             :        76.23210534
 Coulomb energy                             :      -141.33242399
 Exchange energy                            :       -10.40295887
 Correlation energy                         :        -0.42393233
 
 DOS at Fermi energy (states/Ha/cell)       :         1.11127733
 
 Electron charges :
     core                                   :         4.00000000
     core leakage                           :         0.00131968
     valence                                :         8.00000000
     interstitial                           :         4.69551982
     charge in muffin-tin spheres :
                  atom     1     C          :         3.65224009
                  atom     2     C          :         3.65224009
     total charge in muffin-tins            :         7.30448018
     total charge                           :        12.00000000
 
 Wall time (seconds)                        :       174.71
 
 RMS change in effective potential (target) :  0.335846E-01  ( 0.100000E-05)
 Absolute change in total energy   (target) :  0.865360      ( 0.100000E-06)
 Charge distance                   (target) :  0.135195E-01  ( 0.100000E-04)
 Abs. change in max-nonIBS-force   (target) :   0.00000      ( 0.250000E-05)
 
++++++++++++++++++++++++++++++++++++++++++++++++++++++++++++++++++++++++++++++++
| SCF iteration number :    6                                                  +
++++++++++++++++++++++++++++++++++++++++++++++++++++++++++++++++++++++++++++++++
 Total energy                               :       -76.20567069
 _______________________________________________________________
 Fermi energy                               :         0.22594948
 Kinetic energy                             :        76.05228305
 Coulomb energy                             :      -141.41798464
 Exchange energy                            :       -10.41641055
 Correlation energy                         :        -0.42355855
 
 DOS at Fermi energy (states/Ha/cell)       :         1.08161313
 
 Electron charges :
     core                                   :         4.00000000
     core leakage                           :         0.00131334
     valence                                :         8.00000000
     interstitial                           :         4.67375608
     charge in muffin-tin spheres :
                  atom     1     C          :         3.66312196
                  atom     2     C          :         3.66312196
     total charge in muffin-tins            :         7.32624392
     total charge                           :        12.00000000
 
 Wall time (seconds)                        :       209.52
 
 RMS change in effective potential (target) :  0.683250E-03  ( 0.100000E-05)
 Absolute change in total energy   (target) :  0.278461      ( 0.100000E-06)
 Charge distance                   (target) :  0.444822E-02  ( 0.100000E-04)
 Abs. change in max-nonIBS-force   (target) :   0.00000      ( 0.250000E-05)
 
++++++++++++++++++++++++++++++++++++++++++++++++++++++++++++++++++++++++++++++++
| SCF iteration number :    7                                                  +
++++++++++++++++++++++++++++++++++++++++++++++++++++++++++++++++++++++++++++++++
 Total energy                               :       -76.20569099
 _______________________________________________________________
 Fermi energy                               :         0.22594530
 Kinetic energy                             :        76.05261242
 Coulomb energy                             :      -141.41833772
 Exchange energy                            :       -10.41640899
 Correlation energy                         :        -0.42355670
 
 DOS at Fermi energy (states/Ha/cell)       :         1.08179370
 
 Electron charges :
     core                                   :         4.00000000
     core leakage                           :         0.00131324
     valence                                :         8.00000000
     interstitial                           :         4.67377675
     charge in muffin-tin spheres :
                  atom     1     C          :         3.66311162
                  atom     2     C          :         3.66311162
     total charge in muffin-tins            :         7.32622325
     total charge                           :        12.00000000
 
 Wall time (seconds)                        :       244.29
 
 RMS change in effective potential (target) :  0.165160E-03  ( 0.100000E-05)
 Absolute change in total energy   (target) :  0.202980E-04  ( 0.100000E-06)
 Charge distance                   (target) :  0.249616E-04  ( 0.100000E-04)
 Abs. change in max-nonIBS-force   (target) :   0.00000      ( 0.250000E-05)
 
++++++++++++++++++++++++++++++++++++++++++++++++++++++++++++++++++++++++++++++++
| SCF iteration number :    8                                                  +
++++++++++++++++++++++++++++++++++++++++++++++++++++++++++++++++++++++++++++++++
 Total energy                               :       -76.20657261
 _______________________________________________________________
 Fermi energy                               :         0.22592217
 Kinetic energy                             :        76.05195309
 Coulomb energy                             :      -141.41852091
 Exchange energy                            :       -10.41644885
 Correlation energy                         :        -0.42355594
 
 DOS at Fermi energy (states/Ha/cell)       :         1.08167532
 
 Electron charges :
     core                                   :         4.00000000
     core leakage                           :         0.00131324
     valence                                :         8.00000000
     interstitial                           :         4.67370813
     charge in muffin-tin spheres :
                  atom     1     C          :         3.66314593
                  atom     2     C          :         3.66314593
     total charge in muffin-tins            :         7.32629187
     total charge                           :        12.00000000
 
 Wall time (seconds)                        :       279.08
 
 RMS change in effective potential (target) :  0.224495E-04  ( 0.100000E-05)
 Absolute change in total energy   (target) :  0.881619E-03  ( 0.100000E-06)
 Charge distance                   (target) :  0.159781E-04  ( 0.100000E-04)
 Abs. change in max-nonIBS-force   (target) :   0.00000      ( 0.250000E-05)
 
++++++++++++++++++++++++++++++++++++++++++++++++++++++++++++++++++++++++++++++++
| SCF iteration number :    9                                                  +
++++++++++++++++++++++++++++++++++++++++++++++++++++++++++++++++++++++++++++++++
 Total energy                               :       -76.20645583
 _______________________________________________________________
 Fermi energy                               :         0.22592503
 Kinetic energy                             :        76.05202522
 Coulomb energy                             :      -141.41848173
 Exchange energy                            :       -10.41644321
 Correlation energy                         :        -0.42355611
 
 DOS at Fermi energy (states/Ha/cell)       :         1.08168556
 
 Electron charges :
     core                                   :         4.00000000
     core leakage                           :         0.00131324
     valence                                :         8.00000000
     interstitial                           :         4.67371707
     charge in muffin-tin spheres :
                  atom     1     C          :         3.66314147
                  atom     2     C          :         3.66314147
     total charge in muffin-tins            :         7.32628293
     total charge                           :        12.00000000
 
 Wall time (seconds)                        :       313.69
 
 RMS change in effective potential (target) :  0.171193E-05  ( 0.100000E-05)
 Absolute change in total energy   (target) :  0.116781E-03  ( 0.100000E-06)
 Charge distance                   (target) :  0.176944E-05  ( 0.100000E-04)
 Abs. change in max-nonIBS-force   (target) :   0.00000      ( 0.250000E-05)
 
++++++++++++++++++++++++++++++++++++++++++++++++++++++++++++++++++++++++++++++++
| SCF iteration number :   10                                                  +
++++++++++++++++++++++++++++++++++++++++++++++++++++++++++++++++++++++++++++++++
 Total energy                               :       -76.20645627
 _______________________________________________________________
 Fermi energy                               :         0.22592504
 Kinetic energy                             :        76.05202549
 Coulomb energy                             :      -141.41848241
 Exchange energy                            :       -10.41644325
 Correlation energy                         :        -0.42355610
 
 DOS at Fermi energy (states/Ha/cell)       :         1.08168564
 
 Electron charges :
     core                                   :         4.00000000
     core leakage                           :         0.00131324
     valence                                :         8.00000000
     interstitial                           :         4.67371703
     charge in muffin-tin spheres :
                  atom     1     C          :         3.66314148
                  atom     2     C          :         3.66314148
     total charge in muffin-tins            :         7.32628297
     total charge                           :        12.00000000
 
 Wall time (seconds)                        :       348.26
 
 RMS change in effective potential (target) :  0.517228E-07  ( 0.100000E-05)
 Absolute change in total energy   (target) :  0.441948E-06  ( 0.100000E-06)
 Charge distance                   (target) :  0.180634E-07  ( 0.100000E-04)
 Abs. change in max-nonIBS-force   (target) :   0.00000      ( 0.250000E-05)
 
++++++++++++++++++++++++++++++++++++++++++++++++++++++++++++++++++++++++++++++++
| SCF iteration number :   11                                                  +
++++++++++++++++++++++++++++++++++++++++++++++++++++++++++++++++++++++++++++++++
 Total energy                               :       -76.20645624
 _______________________________________________________________
 Fermi energy                               :         0.22592504
 Kinetic energy                             :        76.05202550
 Coulomb energy                             :      -141.41848239
 Exchange energy                            :       -10.41644325
 Correlation energy                         :        -0.42355610
 
 DOS at Fermi energy (states/Ha/cell)       :         1.08168565
 
 Electron charges :
     core                                   :         4.00000000
     core leakage                           :         0.00131324
     valence                                :         8.00000000
     interstitial                           :         4.67371703
     charge in muffin-tin spheres :
                  atom     1     C          :         3.66314148
                  atom     2     C          :         3.66314148
     total charge in muffin-tins            :         7.32628297
     total charge                           :        12.00000000
 
 Wall time (seconds)                        :       382.84
 
 RMS change in effective potential (target) :  0.176310E-07  ( 0.100000E-05)
 Absolute change in total energy   (target) :  0.296754E-07  ( 0.100000E-06)
 Charge distance                   (target) :  0.757448E-09  ( 0.100000E-04)
 Abs. change in max-nonIBS-force   (target) :   0.00000      ( 0.250000E-05)
 
++++++++++++++++++++++++++++++++++++++++++++++++++++++++++++++++++++++++++++++++
| Convergence targets achieved. Performing final SCF iteration                 +
++++++++++++++++++++++++++++++++++++++++++++++++++++++++++++++++++++++++++++++++
 Total energy                               :       -76.21493812
 _______________________________________________________________
 Fermi energy                               :         0.22592504
 Kinetic energy                             :        76.05202550
 Coulomb energy                             :      -141.41848239
 Exchange energy                            :       -10.41644325
 Correlation energy                         :        -0.42355610
 DFT-D2 dispersion correction               :        -0.00848187
 
 DOS at Fermi energy (states/Ha/cell)       :         1.08168565
 
 Electron charges :
     core                                   :         4.00000000
     core leakage                           :         0.00131324
     valence                                :         8.00000000
     interstitial                           :         4.67371703
     charge in muffin-tin spheres :
                  atom     1     C          :         3.66314148
                  atom     2     C          :         3.66314148
     total charge in muffin-tins            :         7.32628297
     total charge                           :        12.00000000
 
++++++++++++++++++++++++++++++++++++++++++++++++++++++++++++++++++++++++++++++++
| Self-consistent loop stopped                                                 +
++++++++++++++++++++++++++++++++++++++++++++++++++++++++++++++++++++++++++++++++
 STATE.OUT is written
 
--------------------------------------------------------------------------------
| Writing atomic positions and forces                                          -
--------------------------------------------------------------------------------
 
 Atomic positions (lattice) :
 atom     1   C  :     0.00000000    0.00000000    0.00000000
 atom     2   C  :     0.33333333    0.33333333    0.00000000
 
 Total atomic forces including IBS (cartesian) :
 atom     1   C  :     0.00000000    0.00000000    0.00000000
 atom     2   C  :     0.00000000    0.00000000    0.00000000
 
 Atomic force components including IBS (cartesian) :
 atom     1   C  :     0.00000000    0.00000000    0.00000000   HF force
                 :     0.00000000    0.00000000    0.00000000   core correction
                 :     0.00000000    0.00000000    0.00000000   IBS correction
                 :     0.00000000    0.00000000    0.00000000   DFT-D2 force
 atom     2   C  :     0.00000000    0.00000000    0.00000000   HF force
                 :     0.00000000    0.00000000    0.00000000   core correction
                 :     0.00000000    0.00000000    0.00000000   IBS correction
                 :     0.00000000    0.00000000    0.00000000   DFT-D2 force
 
********************************************************************************
| Groundstate module stopped                                                   *
********************************************************************************
 
********************************************************************************
| Structure-optimization module started                                        *
********************************************************************************
 Output level for this task is set to normal
 
 Maximum displacement tau_BFGS   is         :         0.3000
 Maximum displacement tau_newton is         :         0.8000
 Maximum force target reached already at the initial configuration
 
********************************************************************************
| Structure-optimization module stopped                                        *
********************************************************************************
 
 Total time spent (seconds)                 :       444.77
 
================================================================================
| EXCITING BORON stopped                                                       =
================================================================================
