================================================================================
| EXCITING CARBON started                                                      =
| version hash id:                                                             =
|                                                                              =
| Date (DD-MM-YYYY) : 22-12-2016                                               =
| Time (hh:mm:ss)   : 13:06:17                                                 =
|                                                                              =
| All units are atomic (Hartree, Bohr, etc.)                                   =
================================================================================

********************************************************************************
| Structural optimisation starting from atomic densities                       *
********************************************************************************

++++++++++++++++++++++++++++++++++++++++++++++++++++++++++++++++++++++++++++++++
| Starting initialization                                                      +
++++++++++++++++++++++++++++++++++++++++++++++++++++++++++++++++++++++++++++++++

 Lattice vectors (cartesian) :
      3.3916662459      3.3916662459      0.0000000000
      3.3916662459      0.0000000000      3.3916662459
      0.0000000000      3.3916662459      3.3916662459

 Reciprocal lattice vectors (cartesian) :
      0.9262682192      0.9262682192     -0.9262682192
      0.9262682192     -0.9262682192      0.9262682192
     -0.9262682192      0.9262682192      0.9262682192

 Unit cell volume                           :      78.0313864696
 Brillouin zone volume                      :       3.1788518014

 Species :    1 (C)
     parameters loaded from                 :    C.xml
     name                                   :    carbon
     nuclear charge                         :      -6.00000000
     electronic charge                      :       6.00000000
     atomic mass                            :   21894.16673000
     muffin-tin radius                      :       1.30000000
     # of radial points in muffin-tin       :     250

     atomic positions (lattice) :
       1 :   0.00000000  0.00000000  0.00000000
       2 :   0.25000000  0.25000000  0.25000000

 Total number of atoms per unit cell        :       2

 Spin treatment                             :    spin-unpolarised

 Number of Bravais lattice symmetries       :      48
 Number of crystal symmetries               :      48

 k-point grid                               :       6    6    6
 Total number of k-points                   :      16
 k-point set is reduced with crystal symmetries

 R^MT_min * |G+k|_max (rgkmax)              :       7.00000000
 Species with R^MT_min                      :       1 (C)
 Maximum |G+k| for APW functions            :       5.38461538
 Maximum |G| for potential and density      :      18.00000000

 G-vector grid sizes                        :      30    30    30
 Total number of G-vectors                  :    7727

 Maximum angular momentum used for
     APW functions                          :       8
     computing H and O matrix elements      :       8
     potential and density                  :       8
     inner part of muffin-tin               :       2

 Total nuclear charge                       :     -12.00000000
 Total electronic charge                    :      12.00000000
 Total core charge                          :       4.00000000
 Total valence charge                       :       8.00000000

 Number of empty states                     :       5
 Total number of valence states             :      10

 Maximum Hamiltonian size                   :     220
 Maximum number of plane-waves              :     212
 Total number of local-orbitals             :       8

 Exchange-correlation type                  :      22
     PBEsol, Phys. Rev. Lett. 100, 136406 (2008)
     Generalised gradient approximation (GGA)

 Smearing scheme                            :    Gaussian
 Smearing width                             :       0.00010000

 Using multisecant Broyden potential mixing

++++++++++++++++++++++++++++++++++++++++++++++++++++++++++++++++++++++++++++++++
| Ending initialization                                                        +
++++++++++++++++++++++++++++++++++++++++++++++++++++++++++++++++++++++++++++++++

********************************************************************************
| Groundstate module started                                                   *
********************************************************************************
 Output level for this task is set to normal

++++++++++++++++++++++++++++++++++++++++++++++++++++++++++++++++++++++++++++++++
| Self-consistent loop started                                                 +
++++++++++++++++++++++++++++++++++++++++++++++++++++++++++++++++++++++++++++++++
 Density and potential initialised from atomic data


++++++++++++++++++++++++++++++++++++++++++++++++++++++++++++++++++++++++++++++++
| SCF iteration number :    1                                                  +
++++++++++++++++++++++++++++++++++++++++++++++++++++++++++++++++++++++++++++++++
 Total energy                               :       -76.79305359
 _______________________________________________________________
 Fermi energy                               :         0.46548234
 Kinetic energy                             :        74.96326665
 Coulomb energy                             :      -141.19417219
 Exchange energy                            :       -10.06471623
 Correlation energy                         :        -0.49743181

 DOS at Fermi energy (states/Ha/cell)       :         0.00000000

 Electron charges :
     core                                   :         4.00000000
     core leakage                           :         0.00056674
     valence                                :         8.00000000
     interstitial                           :         4.07987579
     charge in muffin-tin spheres :
                  atom     1     C          :         3.96006210
                  atom     2     C          :         3.96006210
     total charge in muffin-tins            :         7.92012421
     total charge                           :        12.00000000

 Estimated fundamental gap                  :         0.17366978
        valence-band maximum at    1      0.0000  0.0000  0.0000
     conduction-band minimum at   10      0.3333  0.3333  0.0000

 Wall time (seconds)                        :         4.48

++++++++++++++++++++++++++++++++++++++++++++++++++++++++++++++++++++++++++++++++
| SCF iteration number :    2                                                  +
++++++++++++++++++++++++++++++++++++++++++++++++++++++++++++++++++++++++++++++++
 Total energy                               :       -76.48544253
 _______________________________________________________________
 Fermi energy                               :         0.47692571
 Kinetic energy                             :        75.13334867
 Coulomb energy                             :      -141.07282107
 Exchange energy                            :       -10.04744393
 Correlation energy                         :        -0.49852620

 DOS at Fermi energy (states/Ha/cell)       :         0.00000000

 Electron charges :
     core                                   :         4.00000000
     core leakage                           :         0.00057043
     valence                                :         8.00000000
     interstitial                           :         4.11693835
     charge in muffin-tin spheres :
                  atom     1     C          :         3.94153082
                  atom     2     C          :         3.94153082
     total charge in muffin-tins            :         7.88306165
     total charge                           :        12.00000000

 Estimated fundamental gap                  :         0.16544101
        valence-band maximum at    1      0.0000  0.0000  0.0000
     conduction-band minimum at   10      0.3333  0.3333  0.0000

 Wall time (seconds)                        :         8.04

 RMS change in effective potential (target) :   2.35123      ( 0.100000E-05)
 Absolute change in total energy   (target) :  0.307611      ( 0.100000E-05)
 Charge distance                   (target) :  0.708493E-02  ( 0.100000E-04)
 Abs. change in max-nonIBS-force   (target) :   0.00000      ( 0.500000E-04)

++++++++++++++++++++++++++++++++++++++++++++++++++++++++++++++++++++++++++++++++
| SCF iteration number :    3                                                  +
++++++++++++++++++++++++++++++++++++++++++++++++++++++++++++++++++++++++++++++++
 Total energy                               :       -76.26069192
 _______________________________________________________________
 Fermi energy                               :         0.48538287
 Kinetic energy                             :        75.25767821
 Coulomb energy                             :      -140.98436747
 Exchange energy                            :       -10.03463876
 Correlation energy                         :        -0.49936390

 DOS at Fermi energy (states/Ha/cell)       :         0.00000000

 Electron charges :
     core                                   :         4.00000000
     core leakage                           :         0.00057282
     valence                                :         8.00000000
     interstitial                           :         4.14505050
     charge in muffin-tin spheres :
                  atom     1     C          :         3.92747475
                  atom     2     C          :         3.92747475
     total charge in muffin-tins            :         7.85494950
     total charge                           :        12.00000000

 Estimated fundamental gap                  :         0.15911817
        valence-band maximum at    1      0.0000  0.0000  0.0000
     conduction-band minimum at   10      0.3333  0.3333  0.0000

 Wall time (seconds)                        :        11.61

 RMS change in effective potential (target) :   1.72231      ( 0.100000E-05)
 Absolute change in total energy   (target) :  0.224751      ( 0.100000E-05)
 Charge distance                   (target) :  0.540905E-02  ( 0.100000E-04)
 Abs. change in max-nonIBS-force   (target) :   0.00000      ( 0.500000E-04)

++++++++++++++++++++++++++++++++++++++++++++++++++++++++++++++++++++++++++++++++
| SCF iteration number :    4                                                  +
++++++++++++++++++++++++++++++++++++++++++++++++++++++++++++++++++++++++++++++++
 Total energy                               :       -76.01831228
 _______________________________________________________________
 Fermi energy                               :         0.49657950
 Kinetic energy                             :        75.40282447
 Coulomb energy                             :      -140.90200383
 Exchange energy                            :       -10.01852016
 Correlation energy                         :        -0.50061276

 DOS at Fermi energy (states/Ha/cell)       :         0.00000000

 Electron charges :
     core                                   :         4.00000000
     core leakage                           :         0.00057121
     valence                                :         8.00000000
     interstitial                           :         4.18566389
     charge in muffin-tin spheres :
                  atom     1     C          :         3.90716805
                  atom     2     C          :         3.90716805
     total charge in muffin-tins            :         7.81433611
     total charge                           :        12.00000000

 Estimated fundamental gap                  :         0.14915914
        valence-band maximum at    1      0.0000  0.0000  0.0000
     conduction-band minimum at   10      0.3333  0.3333  0.0000

 Wall time (seconds)                        :        15.14

 RMS change in effective potential (target) :  0.404745E-01  ( 0.100000E-05)
 Absolute change in total energy   (target) :  0.242380      ( 0.100000E-05)
 Charge distance                   (target) :  0.816962E-02  ( 0.100000E-04)
 Abs. change in max-nonIBS-force   (target) :   0.00000      ( 0.500000E-04)

++++++++++++++++++++++++++++++++++++++++++++++++++++++++++++++++++++++++++++++++
| SCF iteration number :    5                                                  +
++++++++++++++++++++++++++++++++++++++++++++++++++++++++++++++++++++++++++++++++
 Total energy                               :       -75.83592502
 _______________________________________________________________
 Fermi energy                               :         0.50204048
 Kinetic energy                             :        75.49285807
 Coulomb energy                             :      -140.81843510
 Exchange energy                            :       -10.00921791
 Correlation energy                         :        -0.50113007

 DOS at Fermi energy (states/Ha/cell)       :         0.00000000

 Electron charges :
     core                                   :         4.00000000
     core leakage                           :         0.00057561
     valence                                :         8.00000000
     interstitial                           :         4.20351277
     charge in muffin-tin spheres :
                  atom     1     C          :         3.89824361
                  atom     2     C          :         3.89824361
     total charge in muffin-tins            :         7.79648723
     total charge                           :        12.00000000

 Estimated fundamental gap                  :         0.14561209
        valence-band maximum at    1      0.0000  0.0000  0.0000
     conduction-band minimum at   10      0.3333  0.3333  0.0000

 Wall time (seconds)                        :        18.65

 RMS change in effective potential (target) :  0.211054E-01  ( 0.100000E-05)
 Absolute change in total energy   (target) :  0.182387      ( 0.100000E-05)
 Charge distance                   (target) :  0.327895E-02  ( 0.100000E-04)
 Abs. change in max-nonIBS-force   (target) :   0.00000      ( 0.500000E-04)

++++++++++++++++++++++++++++++++++++++++++++++++++++++++++++++++++++++++++++++++
| SCF iteration number :    6                                                  +
++++++++++++++++++++++++++++++++++++++++++++++++++++++++++++++++++++++++++++++++
 Total energy                               :       -75.89185281
 _______________________________________________________________
 Fermi energy                               :         0.50040224
 Kinetic energy                             :        75.46576801
 Coulomb energy                             :      -140.84452818
 Exchange energy                            :       -10.01212500
 Correlation energy                         :        -0.50096764

 DOS at Fermi energy (states/Ha/cell)       :         0.00000000

 Electron charges :
     core                                   :         4.00000000
     core leakage                           :         0.00057425
     valence                                :         8.00000000
     interstitial                           :         4.19794468
     charge in muffin-tin spheres :
                  atom     1     C          :         3.90102766
                  atom     2     C          :         3.90102766
     total charge in muffin-tins            :         7.80205532
     total charge                           :        12.00000000

 Estimated fundamental gap                  :         0.14673184
        valence-band maximum at    1      0.0000  0.0000  0.0000
     conduction-band minimum at   10      0.3333  0.3333  0.0000

 Wall time (seconds)                        :        22.18

 RMS change in effective potential (target) :  0.321340E-03  ( 0.100000E-05)
 Absolute change in total energy   (target) :  0.559278E-01  ( 0.100000E-05)
 Charge distance                   (target) :  0.102611E-02  ( 0.100000E-04)
 Abs. change in max-nonIBS-force   (target) :   0.00000      ( 0.500000E-04)

++++++++++++++++++++++++++++++++++++++++++++++++++++++++++++++++++++++++++++++++
| SCF iteration number :    7                                                  +
++++++++++++++++++++++++++++++++++++++++++++++++++++++++++++++++++++++++++++++++
 Total energy                               :       -75.89329730
 _______________________________________________________________
 Fermi energy                               :         0.50035901
 Kinetic energy                             :        75.46502815
 Coulomb energy                             :      -140.84516780
 Exchange energy                            :       -10.01219368
 Correlation energy                         :        -0.50096397

 DOS at Fermi energy (states/Ha/cell)       :         0.00000000

 Electron charges :
     core                                   :         4.00000000
     core leakage                           :         0.00057421
     valence                                :         8.00000000
     interstitial                           :         4.19781407
     charge in muffin-tin spheres :
                  atom     1     C          :         3.90109297
                  atom     2     C          :         3.90109297
     total charge in muffin-tins            :         7.80218593
     total charge                           :        12.00000000

 Estimated fundamental gap                  :         0.14675607
        valence-band maximum at    1      0.0000  0.0000  0.0000
     conduction-band minimum at   10      0.3333  0.3333  0.0000

 Wall time (seconds)                        :        25.70

 RMS change in effective potential (target) :  0.584063E-04  ( 0.100000E-05)
 Absolute change in total energy   (target) :  0.144449E-02  ( 0.100000E-05)
 Charge distance                   (target) :  0.234434E-04  ( 0.100000E-04)
 Abs. change in max-nonIBS-force   (target) :   0.00000      ( 0.500000E-04)

++++++++++++++++++++++++++++++++++++++++++++++++++++++++++++++++++++++++++++++++
| SCF iteration number :    8                                                  +
++++++++++++++++++++++++++++++++++++++++++++++++++++++++++++++++++++++++++++++++
 Total energy                               :       -75.89317611
 _______________________________________________________________
 Fermi energy                               :         0.50036214
 Kinetic energy                             :        75.46508488
 Coulomb energy                             :      -140.84510903
 Exchange energy                            :       -10.01218769
 Correlation energy                         :        -0.50096428

 DOS at Fermi energy (states/Ha/cell)       :         0.00000000

 Electron charges :
     core                                   :         4.00000000
     core leakage                           :         0.00057421
     valence                                :         8.00000000
     interstitial                           :         4.19782480
     charge in muffin-tin spheres :
                  atom     1     C          :         3.90108760
                  atom     2     C          :         3.90108760
     total charge in muffin-tins            :         7.80217520
     total charge                           :        12.00000000

 Estimated fundamental gap                  :         0.14675413
        valence-band maximum at    1      0.0000  0.0000  0.0000
     conduction-band minimum at   10      0.3333  0.3333  0.0000

 Wall time (seconds)                        :        29.24

 RMS change in effective potential (target) :  0.372527E-05  ( 0.100000E-05)
 Absolute change in total energy   (target) :  0.121189E-03  ( 0.100000E-05)
 Charge distance                   (target) :  0.190725E-05  ( 0.100000E-04)
 Abs. change in max-nonIBS-force   (target) :   0.00000      ( 0.500000E-04)

++++++++++++++++++++++++++++++++++++++++++++++++++++++++++++++++++++++++++++++++
| SCF iteration number :    9                                                  +
++++++++++++++++++++++++++++++++++++++++++++++++++++++++++++++++++++++++++++++++
 Total energy                               :       -75.89317376
 _______________________________________________________________
 Fermi energy                               :         0.50036228
 Kinetic energy                             :        75.46508681
 Coulomb energy                             :      -140.84510871
 Exchange energy                            :       -10.01218757
 Correlation energy                         :        -0.50096429

 DOS at Fermi energy (states/Ha/cell)       :         0.00000000

 Electron charges :
     core                                   :         4.00000000
     core leakage                           :         0.00057421
     valence                                :         8.00000000
     interstitial                           :         4.19782516
     charge in muffin-tin spheres :
                  atom     1     C          :         3.90108742
                  atom     2     C          :         3.90108742
     total charge in muffin-tins            :         7.80217484
     total charge                           :        12.00000000

 Estimated fundamental gap                  :         0.14675404
        valence-band maximum at    1      0.0000  0.0000  0.0000
     conduction-band minimum at   10      0.3333  0.3333  0.0000

 Wall time (seconds)                        :        32.77

 RMS change in effective potential (target) :  0.421087E-06  ( 0.100000E-05)
 Absolute change in total energy   (target) :  0.235181E-05  ( 0.100000E-05)
 Charge distance                   (target) :  0.741871E-07  ( 0.100000E-04)
 Abs. change in max-nonIBS-force   (target) :   0.00000      ( 0.500000E-04)

++++++++++++++++++++++++++++++++++++++++++++++++++++++++++++++++++++++++++++++++
| SCF iteration number :   10                                                  +
++++++++++++++++++++++++++++++++++++++++++++++++++++++++++++++++++++++++++++++++
 Total energy                               :       -75.89317452
 _______________________________________________________________
 Fermi energy                               :         0.50036225
 Kinetic energy                             :        75.46508634
 Coulomb energy                             :      -140.84510896
 Exchange energy                            :       -10.01218761
 Correlation energy                         :        -0.50096428

 DOS at Fermi energy (states/Ha/cell)       :         0.00000000

 Electron charges :
     core                                   :         4.00000000
     core leakage                           :         0.00057421
     valence                                :         8.00000000
     interstitial                           :         4.19782506
     charge in muffin-tin spheres :
                  atom     1     C          :         3.90108747
                  atom     2     C          :         3.90108747
     total charge in muffin-tins            :         7.80217494
     total charge                           :        12.00000000

 Estimated fundamental gap                  :         0.14675406
        valence-band maximum at    1      0.0000  0.0000  0.0000
     conduction-band minimum at   10      0.3333  0.3333  0.0000

 Wall time (seconds)                        :        36.33

 RMS change in effective potential (target) :  0.491902E-07  ( 0.100000E-05)
 Absolute change in total energy   (target) :  0.758214E-06  ( 0.100000E-05)
 Charge distance                   (target) :  0.189689E-07  ( 0.100000E-04)
 Abs. change in max-nonIBS-force   (target) :   0.00000      ( 0.500000E-04)

++++++++++++++++++++++++++++++++++++++++++++++++++++++++++++++++++++++++++++++++
| SCF iteration number :   11                                                  +
++++++++++++++++++++++++++++++++++++++++++++++++++++++++++++++++++++++++++++++++
 Total energy                               :       -75.89317450
 _______________________________________________________________
 Fermi energy                               :         0.50036225
 Kinetic energy                             :        75.46508635
 Coulomb energy                             :      -140.84510895
 Exchange energy                            :       -10.01218761
 Correlation energy                         :        -0.50096428

 DOS at Fermi energy (states/Ha/cell)       :         0.00000000

 Electron charges :
     core                                   :         4.00000000
     core leakage                           :         0.00057421
     valence                                :         8.00000000
     interstitial                           :         4.19782507
     charge in muffin-tin spheres :
                  atom     1     C          :         3.90108747
                  atom     2     C          :         3.90108747
     total charge in muffin-tins            :         7.80217493
     total charge                           :        12.00000000

 Estimated fundamental gap                  :         0.14675406
        valence-band maximum at    1      0.0000  0.0000  0.0000
     conduction-band minimum at   10      0.3333  0.3333  0.0000

 Wall time (seconds)                        :        39.89

 RMS change in effective potential (target) :  0.100449E-07  ( 0.100000E-05)
 Absolute change in total energy   (target) :  0.177796E-07  ( 0.100000E-05)
 Charge distance                   (target) :  0.348576E-09  ( 0.100000E-04)
 Abs. change in max-nonIBS-force   (target) :   0.00000      ( 0.500000E-04)
                                                                                
++++++++++++++++++++++++++++++++++++++++++++++++++++++++++++++++++++++++++++++++
| Convergency criteria checked for the last 2 iterations                       +
| Convergence targets achieved. Performing final SCF iteration                 +
++++++++++++++++++++++++++++++++++++++++++++++++++++++++++++++++++++++++++++++++
 Total energy                               :       -75.89317448
 _______________________________________________________________
 Fermi energy                               :         0.50036225
 Kinetic energy                             :        75.46508636
 Coulomb energy                             :      -140.84510894
 Exchange energy                            :       -10.01218761
 Correlation energy                         :        -0.50096428

 DOS at Fermi energy (states/Ha/cell)       :         0.00000000

 Electron charges :
     core                                   :         4.00000000
     core leakage                           :         0.00057421
     valence                                :         8.00000000
     interstitial                           :         4.19782507
     charge in muffin-tin spheres :
                  atom     1     C          :         3.90108747
                  atom     2     C          :         3.90108747
     total charge in muffin-tins            :         7.80217493
     total charge                           :        12.00000000

 Estimated fundamental gap                  :         0.14675406
        valence-band maximum at    1      0.0000  0.0000  0.0000
     conduction-band minimum at   10      0.3333  0.3333  0.0000

++++++++++++++++++++++++++++++++++++++++++++++++++++++++++++++++++++++++++++++++
| Self-consistent loop stopped                                                 +
++++++++++++++++++++++++++++++++++++++++++++++++++++++++++++++++++++++++++++++++
 STATE.OUT is written

--------------------------------------------------------------------------------
| Writing atomic positions and forces                                          -
--------------------------------------------------------------------------------

 Atomic positions (lattice) :
 atom     1   C  :     0.00000000    0.00000000    0.00000000
 atom     2   C  :     0.25000000    0.25000000    0.25000000

 Total atomic forces including IBS (cartesian) :
 atom     1   C  :     0.00000000    0.00000000    0.00000000
 atom     2   C  :    -0.00000000   -0.00000000   -0.00000000

 Atomic force components including IBS (cartesian) :
 atom     1   C  :    -0.00000000    0.00000000   -0.00000000   HF force
                 :     0.00000000   -0.00000000   -0.00000000   core correction
                 :     0.00000000    0.00000000    0.00000000   IBS correction
 atom     2   C  :     0.00000000   -0.00000000    0.00000000   HF force
                 :    -0.00000000    0.00000000    0.00000000   core correction
                 :    -0.00000000   -0.00000000   -0.00000000   IBS correction

********************************************************************************
| Groundstate module stopped                                                   *
********************************************************************************

********************************************************************************
| Structure-optimization module started                                        *
********************************************************************************
 Output level for this task is set to normal

 Maximum displacement tau_BFGS   is         :         0.3000
 Maximum displacement tau_newton is         :         0.2000
 Maximum force target reached already at the initial configuration

********************************************************************************
| Structure-optimization module stopped                                        *
********************************************************************************

 Total time spent (seconds)                 :        41.76

================================================================================
| EXCITING CARBON stopped                                                      =
================================================================================
