================================================================================
| EXCITING BORON started                                                       =
| version hash id:                                                             =
| MPI version using     16 processor(s)                                        =
|                                                                              =
| Date (DD-MM-YYYY) : 09-08-2015                                               =
| Time (hh:mm:ss)   : 22:22:03                                                 =
|                                                                              =
| All units are atomic (Hartree, Bohr, etc.)                                   =
================================================================================
 
********************************************************************************
| Structural optimisation starting from atomic densities                       *
********************************************************************************
 
++++++++++++++++++++++++++++++++++++++++++++++++++++++++++++++++++++++++++++++++
| Starting initialization                                                      +
++++++++++++++++++++++++++++++++++++++++++++++++++++++++++++++++++++++++++++++++
 
 Lattice vectors (cartesian) :
      2.3270000000      4.0304822292      0.0000000000
     -2.3270000000      4.0304822292      0.0000000000
      0.0000000000      0.0000000000      6.7063344843
 
 Reciprocal lattice vectors (cartesian) :
      1.3500613036      0.7794582571      0.0000000000
     -1.3500613036      0.7794582571      0.0000000000
      0.0000000000      0.0000000000      0.9369030611
 
 Unit cell volume                           :     125.7965121706
 Brillouin zone volume                      :       1.9718369704
 
 Species :    1 (C)
     parameters loaded from                 :    C.xml
     name                                   :    carbon
     nuclear charge                         :      -6.00000000
     electronic charge                      :       6.00000000
     atomic mass                            :   21894.16673000
     muffin-tin radius                      :       1.20000000
     # of radial points in muffin-tin       :     250
 
     atomic positions (lattice) :
       1 :   0.00000000  0.00000000  0.00000000
       2 :   0.33333333  0.33333333  0.00000000
 
 Total number of atoms per unit cell        :       2
 
 Spin treatment                             :    spin-unpolarised
 
 Number of Bravais lattice symmetries       :      24
 Number of crystal symmetries               :      24
 
 k-point grid                               :      34   34   24
 Total number of k-points                   :    1482
 k-point set is reduced with crystal symmetries
 
 R^MT_min * |G+k|_max (rgkmax)              :       8.00000000
 Species with R^MT_min                      :       1 (C)
 Maximum |G+k| for APW functions            :       6.66666667
 Maximum |G| for potential and density      :      20.00000000
 
 G-vector grid sizes                        :      30    30    45
 Total number of G-vectors                  :   16969
 
 Maximum angular momentum used for
     APW functions                          :       8
     computing H and O matrix elements      :       8
     potential and density                  :       8
     inner part of muffin-tin               :       2
 
 Total nuclear charge                       :     -12.00000000
 Total electronic charge                    :      12.00000000
 Total core charge                          :       4.00000000
 Total valence charge                       :       8.00000000
 
 Number of empty states                     :       5
 Total number of valence states             :      10
 
 Maximum Hamiltonian size                   :     658
 Maximum number of plane-waves              :     650
 Total number of local-orbitals             :       8
 
 Exchange-correlation type                  :      20
     Perdew-Burke-Ernzerhof, Phys. Rev. Lett. 77, 3865 (1996)
     Generalised gradient approximation (GGA)
 
 Smearing scheme                            :    Gaussian
 Smearing width                             :       0.01000000
 
 Using multisecant Broyden potential mixing
 
++++++++++++++++++++++++++++++++++++++++++++++++++++++++++++++++++++++++++++++++
| Ending initialization                                                        +
++++++++++++++++++++++++++++++++++++++++++++++++++++++++++++++++++++++++++++++++
 
********************************************************************************
| Groundstate module started                                                   *
********************************************************************************
 Output level for this task is set to normal
 
++++++++++++++++++++++++++++++++++++++++++++++++++++++++++++++++++++++++++++++++
| Self-consistent loop started                                                 +
++++++++++++++++++++++++++++++++++++++++++++++++++++++++++++++++++++++++++++++++
 Density and potential initialised from atomic data
 
 
++++++++++++++++++++++++++++++++++++++++++++++++++++++++++++++++++++++++++++++++
| SCF iteration number :    1                                                  +
++++++++++++++++++++++++++++++++++++++++++++++++++++++++++++++++++++++++++++++++
 Total energy                               :       -78.39078660
 _______________________________________________________________
 Fermi energy                               :         0.15191711
 Kinetic energy                             :        74.46521531
 Coulomb energy                             :      -141.93491602
 Exchange energy                            :       -10.50215614
 Correlation energy                         :        -0.41892975
 
 DOS at Fermi energy (states/Ha/cell)       :         0.86214295
 
 Electron charges :
     core                                   :         4.00000000
     core leakage                           :         0.00128278
     valence                                :         8.00000000
     interstitial                           :         4.53533218
     charge in muffin-tin spheres :
                  atom     1     C          :         3.73233391
                  atom     2     C          :         3.73233391
     total charge in muffin-tins            :         7.46466782
     total charge                           :        12.00000000
 
 Wall time (seconds)                        :        39.47
 
++++++++++++++++++++++++++++++++++++++++++++++++++++++++++++++++++++++++++++++++
| SCF iteration number :    2                                                  +
++++++++++++++++++++++++++++++++++++++++++++++++++++++++++++++++++++++++++++++++
 Total energy                               :       -77.58775717
 _______________________________________________________________
 Fermi energy                               :         0.17458646
 Kinetic energy                             :        75.01370690
 Coulomb energy                             :      -141.71782663
 Exchange energy                            :       -10.46384337
 Correlation energy                         :        -0.41979408
 
 DOS at Fermi energy (states/Ha/cell)       :         0.91730130
 
 Electron charges :
     core                                   :         4.00000000
     core leakage                           :         0.00129515
     valence                                :         8.00000000
     interstitial                           :         4.59935812
     charge in muffin-tin spheres :
                  atom     1     C          :         3.70032094
                  atom     2     C          :         3.70032094
     total charge in muffin-tins            :         7.40064188
     total charge                           :        12.00000000
 
 Wall time (seconds)                        :        77.70
 
 RMS change in effective potential (target) :   1.60876      ( 0.100000E-05)
 Absolute change in total energy   (target) :  0.803029      ( 0.100000E-06)
 Charge distance                   (target) :  0.130225E-01  ( 0.100000E-04)
 Abs. change in max-nonIBS-force   (target) :   0.00000      ( 0.250000E-05)
 
++++++++++++++++++++++++++++++++++++++++++++++++++++++++++++++++++++++++++++++++
| SCF iteration number :    3                                                  +
++++++++++++++++++++++++++++++++++++++++++++++++++++++++++++++++++++++++++++++++
 Total energy                               :       -77.01932569
 _______________________________________________________________
 Fermi energy                               :         0.19004526
 Kinetic energy                             :        75.39864642
 Coulomb energy                             :      -141.56140201
 Exchange energy                            :       -10.43609734
 Correlation energy                         :        -0.42047277
 
 DOS at Fermi energy (states/Ha/cell)       :         0.96177640
 
 Electron charges :
     core                                   :         4.00000000
     core leakage                           :         0.00130311
     valence                                :         8.00000000
     interstitial                           :         4.64598231
     charge in muffin-tin spheres :
                  atom     1     C          :         3.67700884
                  atom     2     C          :         3.67700884
     total charge in muffin-tins            :         7.35401769
     total charge                           :        12.00000000
 
 Wall time (seconds)                        :       115.83
 
 RMS change in effective potential (target) :   1.18715      ( 0.100000E-05)
 Absolute change in total energy   (target) :  0.568431      ( 0.100000E-06)
 Charge distance                   (target) :  0.959824E-02  ( 0.100000E-04)
 Abs. change in max-nonIBS-force   (target) :   0.00000      ( 0.250000E-05)
 
++++++++++++++++++++++++++++++++++++++++++++++++++++++++++++++++++++++++++++++++
| SCF iteration number :    4                                                  +
++++++++++++++++++++++++++++++++++++++++++++++++++++++++++++++++++++++++++++++++
 Total energy                               :       -76.77604482
 _______________________________________________________________
 Fermi energy                               :         0.19598361
 Kinetic energy                             :        75.57815960
 Coulomb energy                             :      -141.51199878
 Exchange energy                            :       -10.42129113
 Correlation energy                         :        -0.42091451
 
 DOS at Fermi energy (states/Ha/cell)       :         0.99019806
 
 Electron charges :
     core                                   :         4.00000000
     core leakage                           :         0.00129530
     valence                                :         8.00000000
     interstitial                           :         4.67539711
     charge in muffin-tin spheres :
                  atom     1     C          :         3.66230144
                  atom     2     C          :         3.66230144
     total charge in muffin-tins            :         7.32460289
     total charge                           :        12.00000000
 
 Wall time (seconds)                        :       154.00
 
 RMS change in effective potential (target) :  0.672061E-01  ( 0.100000E-05)
 Absolute change in total energy   (target) :  0.243281      ( 0.100000E-06)
 Charge distance                   (target) :  0.658425E-02  ( 0.100000E-04)
 Abs. change in max-nonIBS-force   (target) :   0.00000      ( 0.250000E-05)
 
++++++++++++++++++++++++++++++++++++++++++++++++++++++++++++++++++++++++++++++++
| SCF iteration number :    5                                                  +
++++++++++++++++++++++++++++++++++++++++++++++++++++++++++++++++++++++++++++++++
 Total energy                               :       -75.92871869
 _______________________________________________________________
 Fermi energy                               :         0.21798846
 Kinetic energy                             :        76.12771928
 Coulomb energy                             :      -141.25367401
 Exchange energy                            :       -10.38078680
 Correlation energy                         :        -0.42197715
 
 DOS at Fermi energy (states/Ha/cell)       :         1.06515858
 
 Electron charges :
     core                                   :         4.00000000
     core leakage                           :         0.00131507
     valence                                :         8.00000000
     interstitial                           :         4.74046960
     charge in muffin-tin spheres :
                  atom     1     C          :         3.62976520
                  atom     2     C          :         3.62976520
     total charge in muffin-tins            :         7.25953040
     total charge                           :        12.00000000
 
 Wall time (seconds)                        :       192.10
 
 RMS change in effective potential (target) :  0.330329E-01  ( 0.100000E-05)
 Absolute change in total energy   (target) :  0.847326      ( 0.100000E-06)
 Charge distance                   (target) :  0.132643E-01  ( 0.100000E-04)
 Abs. change in max-nonIBS-force   (target) :   0.00000      ( 0.250000E-05)
 
++++++++++++++++++++++++++++++++++++++++++++++++++++++++++++++++++++++++++++++++
| SCF iteration number :    6                                                  +
++++++++++++++++++++++++++++++++++++++++++++++++++++++++++++++++++++++++++++++++
 Total energy                               :       -76.20639484
 _______________________________________________________________
 Fermi energy                               :         0.21091078
 Kinetic energy                             :        75.94795974
 Coulomb energy                             :      -141.33855682
 Exchange energy                            :       -10.39417653
 Correlation energy                         :        -0.42162123
 
 DOS at Fermi energy (states/Ha/cell)       :         1.03887213
 
 Electron charges :
     core                                   :         4.00000000
     core leakage                           :         0.00130883
     valence                                :         8.00000000
     interstitial                           :         4.71889830
     charge in muffin-tin spheres :
                  atom     1     C          :         3.64055085
                  atom     2     C          :         3.64055085
     total charge in muffin-tins            :         7.28110170
     total charge                           :        12.00000000
 
 Wall time (seconds)                        :       230.16
 
 RMS change in effective potential (target) :  0.605123E-03  ( 0.100000E-05)
 Absolute change in total energy   (target) :  0.277676      ( 0.100000E-06)
 Charge distance                   (target) :  0.443744E-02  ( 0.100000E-04)
 Abs. change in max-nonIBS-force   (target) :   0.00000      ( 0.250000E-05)
 
++++++++++++++++++++++++++++++++++++++++++++++++++++++++++++++++++++++++++++++++
| SCF iteration number :    7                                                  +
++++++++++++++++++++++++++++++++++++++++++++++++++++++++++++++++++++++++++++++++
 Total energy                               :       -76.20676186
 _______________________________________________________________
 Fermi energy                               :         0.21089922
 Kinetic energy                             :        75.94804693
 Coulomb energy                             :      -141.33899642
 Exchange energy                            :       -10.39419333
 Correlation energy                         :        -0.42161904
 
 DOS at Fermi energy (states/Ha/cell)       :         1.03897818
 
 Electron charges :
     core                                   :         4.00000000
     core leakage                           :         0.00130873
     valence                                :         8.00000000
     interstitial                           :         4.71888749
     charge in muffin-tin spheres :
                  atom     1     C          :         3.64055626
                  atom     2     C          :         3.64055626
     total charge in muffin-tins            :         7.28111251
     total charge                           :        12.00000000
 
 Wall time (seconds)                        :       268.17
 
 RMS change in effective potential (target) :  0.160456E-03  ( 0.100000E-05)
 Absolute change in total energy   (target) :  0.367024E-03  ( 0.100000E-06)
 Charge distance                   (target) :  0.205533E-04  ( 0.100000E-04)
 Abs. change in max-nonIBS-force   (target) :   0.00000      ( 0.250000E-05)
 
++++++++++++++++++++++++++++++++++++++++++++++++++++++++++++++++++++++++++++++++
| SCF iteration number :    8                                                  +
++++++++++++++++++++++++++++++++++++++++++++++++++++++++++++++++++++++++++++++++
 Total energy                               :       -76.20752349
 _______________________________________________________________
 Fermi energy                               :         0.21087880
 Kinetic energy                             :        75.94746958
 Coulomb energy                             :      -141.33914714
 Exchange energy                            :       -10.39422746
 Correlation energy                         :        -0.42161846
 
 DOS at Fermi energy (states/Ha/cell)       :         1.03888482
 
 Electron charges :
     core                                   :         4.00000000
     core leakage                           :         0.00130872
     valence                                :         8.00000000
     interstitial                           :         4.71882877
     charge in muffin-tin spheres :
                  atom     1     C          :         3.64058561
                  atom     2     C          :         3.64058561
     total charge in muffin-tins            :         7.28117123
     total charge                           :        12.00000000
 
 Wall time (seconds)                        :       306.25
 
 RMS change in effective potential (target) :  0.205025E-04  ( 0.100000E-05)
 Absolute change in total energy   (target) :  0.761626E-03  ( 0.100000E-06)
 Charge distance                   (target) :  0.139537E-04  ( 0.100000E-04)
 Abs. change in max-nonIBS-force   (target) :   0.00000      ( 0.250000E-05)
 
++++++++++++++++++++++++++++++++++++++++++++++++++++++++++++++++++++++++++++++++
| SCF iteration number :    9                                                  +
++++++++++++++++++++++++++++++++++++++++++++++++++++++++++++++++++++++++++++++++
 Total energy                               :       -76.20738236
 _______________________________________________________________
 Fermi energy                               :         0.21088237
 Kinetic energy                             :        75.94755971
 Coulomb energy                             :      -141.33910271
 Exchange energy                            :       -10.39422072
 Correlation energy                         :        -0.42161864
 
 DOS at Fermi energy (states/Ha/cell)       :         1.03889672
 
 Electron charges :
     core                                   :         4.00000000
     core leakage                           :         0.00130873
     valence                                :         8.00000000
     interstitial                           :         4.71883955
     charge in muffin-tin spheres :
                  atom     1     C          :         3.64058022
                  atom     2     C          :         3.64058022
     total charge in muffin-tins            :         7.28116045
     total charge                           :        12.00000000
 
 Wall time (seconds)                        :       344.51
 
 RMS change in effective potential (target) :  0.164086E-05  ( 0.100000E-05)
 Absolute change in total energy   (target) :  0.141123E-03  ( 0.100000E-06)
 Charge distance                   (target) :  0.218534E-05  ( 0.100000E-04)
 Abs. change in max-nonIBS-force   (target) :   0.00000      ( 0.250000E-05)
 
++++++++++++++++++++++++++++++++++++++++++++++++++++++++++++++++++++++++++++++++
| SCF iteration number :   10                                                  +
++++++++++++++++++++++++++++++++++++++++++++++++++++++++++++++++++++++++++++++++
 Total energy                               :       -76.20738313
 _______________________________________________________________
 Fermi energy                               :         0.21088237
 Kinetic energy                             :        75.94755974
 Coulomb energy                             :      -141.33910346
 Exchange energy                            :       -10.39422078
 Correlation energy                         :        -0.42161864
 
 DOS at Fermi energy (states/Ha/cell)       :         1.03889677
 
 Electron charges :
     core                                   :         4.00000000
     core leakage                           :         0.00130873
     valence                                :         8.00000000
     interstitial                           :         4.71883949
     charge in muffin-tin spheres :
                  atom     1     C          :         3.64058025
                  atom     2     C          :         3.64058025
     total charge in muffin-tins            :         7.28116051
     total charge                           :        12.00000000
 
 Wall time (seconds)                        :       382.73
 
 RMS change in effective potential (target) :  0.394184E-07  ( 0.100000E-05)
 Absolute change in total energy   (target) :  0.769483E-06  ( 0.100000E-06)
 Charge distance                   (target) :  0.173314E-07  ( 0.100000E-04)
 Abs. change in max-nonIBS-force   (target) :   0.00000      ( 0.250000E-05)
 
++++++++++++++++++++++++++++++++++++++++++++++++++++++++++++++++++++++++++++++++
| SCF iteration number :   11                                                  +
++++++++++++++++++++++++++++++++++++++++++++++++++++++++++++++++++++++++++++++++
 Total energy                               :       -76.20738316
 _______________________________________________________________
 Fermi energy                               :         0.21088237
 Kinetic energy                             :        75.94755971
 Coulomb energy                             :      -141.33910346
 Exchange energy                            :       -10.39422078
 Correlation energy                         :        -0.42161864
 
 DOS at Fermi energy (states/Ha/cell)       :         1.03889677
 
 Electron charges :
     core                                   :         4.00000000
     core leakage                           :         0.00130873
     valence                                :         8.00000000
     interstitial                           :         4.71883949
     charge in muffin-tin spheres :
                  atom     1     C          :         3.64058025
                  atom     2     C          :         3.64058025
     total charge in muffin-tins            :         7.28116051
     total charge                           :        12.00000000
 
 Wall time (seconds)                        :       420.92
 
 RMS change in effective potential (target) :  0.546427E-08  ( 0.100000E-05)
 Absolute change in total energy   (target) :  0.330154E-07  ( 0.100000E-06)
 Charge distance                   (target) :  0.734384E-09  ( 0.100000E-04)
 Abs. change in max-nonIBS-force   (target) :   0.00000      ( 0.250000E-05)
 
++++++++++++++++++++++++++++++++++++++++++++++++++++++++++++++++++++++++++++++++
| Convergence targets achieved. Performing final SCF iteration                 +
++++++++++++++++++++++++++++++++++++++++++++++++++++++++++++++++++++++++++++++++
 Total energy                               :       -76.21543743
 _______________________________________________________________
 Fermi energy                               :         0.21088237
 Kinetic energy                             :        75.94755970
 Coulomb energy                             :      -141.33910347
 Exchange energy                            :       -10.39422078
 Correlation energy                         :        -0.42161864
 DFT-D2 dispersion correction               :        -0.00805425
 
 DOS at Fermi energy (states/Ha/cell)       :         1.03889676
 
 Electron charges :
     core                                   :         4.00000000
     core leakage                           :         0.00130873
     valence                                :         8.00000000
     interstitial                           :         4.71883949
     charge in muffin-tin spheres :
                  atom     1     C          :         3.64058026
                  atom     2     C          :         3.64058026
     total charge in muffin-tins            :         7.28116051
     total charge                           :        12.00000000
 
++++++++++++++++++++++++++++++++++++++++++++++++++++++++++++++++++++++++++++++++
| Self-consistent loop stopped                                                 +
++++++++++++++++++++++++++++++++++++++++++++++++++++++++++++++++++++++++++++++++
 STATE.OUT is written
 
--------------------------------------------------------------------------------
| Writing atomic positions and forces                                          -
--------------------------------------------------------------------------------
 
 Atomic positions (lattice) :
 atom     1   C  :     0.00000000    0.00000000    0.00000000
 atom     2   C  :     0.33333333    0.33333333    0.00000000
 
 Total atomic forces including IBS (cartesian) :
 atom     1   C  :     0.00000000    0.00000000    0.00000000
 atom     2   C  :     0.00000000    0.00000000    0.00000000
 
 Atomic force components including IBS (cartesian) :
 atom     1   C  :     0.00000000    0.00000000    0.00000000   HF force
                 :     0.00000000    0.00000000    0.00000000   core correction
                 :     0.00000000    0.00000000    0.00000000   IBS correction
                 :     0.00000000    0.00000000    0.00000000   DFT-D2 force
 atom     2   C  :     0.00000000    0.00000000    0.00000000   HF force
                 :     0.00000000    0.00000000    0.00000000   core correction
                 :     0.00000000    0.00000000    0.00000000   IBS correction
                 :     0.00000000    0.00000000    0.00000000   DFT-D2 force
 
********************************************************************************
| Groundstate module stopped                                                   *
********************************************************************************
 
********************************************************************************
| Structure-optimization module started                                        *
********************************************************************************
 Output level for this task is set to normal
 
 Maximum displacement tau_BFGS   is         :         0.3000
 Maximum displacement tau_newton is         :         0.8000
 Maximum force target reached already at the initial configuration
 
********************************************************************************
| Structure-optimization module stopped                                        *
********************************************************************************
 
 Total time spent (seconds)                 :       488.31
 
================================================================================
| EXCITING BORON stopped                                                       =
================================================================================
