================================================================================
| EXCITING CARBON started                                                      =
| version hash id:                                                             =
|                                                                              =
| Date (DD-MM-YYYY) : 22-12-2016                                               =
| Time (hh:mm:ss)   : 13:11:03                                                 =
|                                                                              =
| All units are atomic (Hartree, Bohr, etc.)                                   =
================================================================================

********************************************************************************
| Structural optimisation starting from atomic densities                       *
********************************************************************************

++++++++++++++++++++++++++++++++++++++++++++++++++++++++++++++++++++++++++++++++
| Starting initialization                                                      +
++++++++++++++++++++++++++++++++++++++++++++++++++++++++++++++++++++++++++++++++

 Lattice vectors (cartesian) :
      3.2211202426      3.2211202426      0.0000000000
      3.2211202426      0.0000000000      3.3582500000
      0.0000000000      3.2211202426      3.3582500000

 Reciprocal lattice vectors (cartesian) :
      0.9753105805      0.9753105805     -0.9354850454
      0.9753105805     -0.9753105805      0.9354850454
     -0.9753105805      0.9753105805      0.9354850454

 Unit cell volume                           :      69.6878222950
 Brillouin zone volume                      :       3.5594484843

 Species :    1 (C)
     parameters loaded from                 :    C.xml
     name                                   :    carbon
     nuclear charge                         :      -6.00000000
     electronic charge                      :       6.00000000
     atomic mass                            :   21894.16673000
     muffin-tin radius                      :       1.30000000
     # of radial points in muffin-tin       :     250

     atomic positions (lattice) :
       1 :   0.00000000  0.00000000  0.00000000
       2 :   0.25000000  0.25000000  0.25000000

 Total number of atoms per unit cell        :       2

 Spin treatment                             :    spin-unpolarised

 Number of Bravais lattice symmetries       :      16
 Number of crystal symmetries               :      16

 k-point grid                               :       6    6    6
 Total number of k-points                   :      30
 k-point set is reduced with crystal symmetries

 R^MT_min * |G+k|_max (rgkmax)              :       7.00000000
 Species with R^MT_min                      :       1 (C)
 Maximum |G+k| for APW functions            :       5.38461538
 Maximum |G| for potential and density      :      18.00000000

 G-vector grid sizes                        :      27    27    27
 Total number of G-vectors                  :    6911

 Maximum angular momentum used for
     APW functions                          :       8
     computing H and O matrix elements      :       8
     potential and density                  :       8
     inner part of muffin-tin               :       2

 Total nuclear charge                       :     -12.00000000
 Total electronic charge                    :      12.00000000
 Total core charge                          :       4.00000000
 Total valence charge                       :       8.00000000

 Number of empty states                     :       5
 Total number of valence states             :      10

 Maximum Hamiltonian size                   :     198
 Maximum number of plane-waves              :     190
 Total number of local-orbitals             :       8

 Exchange-correlation type                  :      22
     PBEsol, Phys. Rev. Lett. 100, 136406 (2008)
     Generalised gradient approximation (GGA)

 Smearing scheme                            :    Gaussian
 Smearing width                             :       0.00010000

 Using multisecant Broyden potential mixing

++++++++++++++++++++++++++++++++++++++++++++++++++++++++++++++++++++++++++++++++
| Ending initialization                                                        +
++++++++++++++++++++++++++++++++++++++++++++++++++++++++++++++++++++++++++++++++

********************************************************************************
| Groundstate module started                                                   *
********************************************************************************
 Output level for this task is set to normal

++++++++++++++++++++++++++++++++++++++++++++++++++++++++++++++++++++++++++++++++
| Self-consistent loop started                                                 +
++++++++++++++++++++++++++++++++++++++++++++++++++++++++++++++++++++++++++++++++
 Density and potential initialised from atomic data


++++++++++++++++++++++++++++++++++++++++++++++++++++++++++++++++++++++++++++++++
| SCF iteration number :    1                                                  +
++++++++++++++++++++++++++++++++++++++++++++++++++++++++++++++++++++++++++++++++
 Total energy                               :       -76.94303812
 _______________________________________________________________
 Fermi energy                               :         0.53616650
 Kinetic energy                             :        75.28414812
 Coulomb energy                             :      -141.55652601
 Exchange energy                            :       -10.16536895
 Correlation energy                         :        -0.50529128

 DOS at Fermi energy (states/Ha/cell)       :         0.00000000

 Electron charges :
     core                                   :         4.00000000
     core leakage                           :         0.00057183
     valence                                :         8.00000000
     interstitial                           :         3.85275040
     charge in muffin-tin spheres :
                  atom     1     C          :         4.07362480
                  atom     2     C          :         4.07362480
     total charge in muffin-tins            :         8.14724960
     total charge                           :        12.00000000

 Estimated fundamental gap                  :         0.16892680
        valence-band maximum at    1      0.0000  0.0000  0.0000
     conduction-band minimum at   10      0.3333  0.3333  0.0000

 Wall time (seconds)                        :         5.69

++++++++++++++++++++++++++++++++++++++++++++++++++++++++++++++++++++++++++++++++
| SCF iteration number :    2                                                  +
++++++++++++++++++++++++++++++++++++++++++++++++++++++++++++++++++++++++++++++++
 Total energy                               :       -76.58534525
 _______________________________________________________________
 Fermi energy                               :         0.54892139
 Kinetic energy                             :        75.48049947
 Coulomb energy                             :      -141.41371821
 Exchange energy                            :       -10.14555060
 Correlation energy                         :        -0.50657590

 DOS at Fermi energy (states/Ha/cell)       :         0.00000000

 Electron charges :
     core                                   :         4.00000000
     core leakage                           :         0.00057683
     valence                                :         8.00000000
     interstitial                           :         3.89524749
     charge in muffin-tin spheres :
                  atom     1     C          :         4.05237626
                  atom     2     C          :         4.05237626
     total charge in muffin-tins            :         8.10475251
     total charge                           :        12.00000000

 Estimated fundamental gap                  :         0.15892034
        valence-band maximum at    1      0.0000  0.0000  0.0000
     conduction-band minimum at   10      0.3333  0.3333  0.0000

 Wall time (seconds)                        :        10.67

 RMS change in effective potential (target) :   2.51319      ( 0.100000E-05)
 Absolute change in total energy   (target) :  0.357693      ( 0.100000E-05)
 Charge distance                   (target) :  0.798548E-02  ( 0.100000E-04)
 Abs. change in max-nonIBS-force   (target) :   0.00000      ( 0.500000E-04)

++++++++++++++++++++++++++++++++++++++++++++++++++++++++++++++++++++++++++++++++
| SCF iteration number :    3                                                  +
++++++++++++++++++++++++++++++++++++++++++++++++++++++++++++++++++++++++++++++++
 Total energy                               :       -76.32307740
 _______________________________________________________________
 Fermi energy                               :         0.55833358
 Kinetic energy                             :        75.62423229
 Coulomb energy                             :      -141.30893126
 Exchange energy                            :       -10.13081605
 Correlation energy                         :        -0.50756238

 DOS at Fermi energy (states/Ha/cell)       :         0.00000000

 Electron charges :
     core                                   :         4.00000000
     core leakage                           :         0.00058022
     valence                                :         8.00000000
     interstitial                           :         3.92765911
     charge in muffin-tin spheres :
                  atom     1     C          :         4.03617044
                  atom     2     C          :         4.03617044
     total charge in muffin-tins            :         8.07234089
     total charge                           :        12.00000000

 Estimated fundamental gap                  :         0.15123030
        valence-band maximum at    1      0.0000  0.0000  0.0000
     conduction-band minimum at   10      0.3333  0.3333  0.0000

 Wall time (seconds)                        :        15.63

 RMS change in effective potential (target) :   1.84373      ( 0.100000E-05)
 Absolute change in total energy   (target) :  0.262268      ( 0.100000E-05)
 Charge distance                   (target) :  0.611917E-02  ( 0.100000E-04)
 Abs. change in max-nonIBS-force   (target) :   0.00000      ( 0.500000E-04)

++++++++++++++++++++++++++++++++++++++++++++++++++++++++++++++++++++++++++++++++
| SCF iteration number :    4                                                  +
++++++++++++++++++++++++++++++++++++++++++++++++++++++++++++++++++++++++++++++++
 Total energy                               :       -76.02886596
 _______________________________________________________________
 Fermi energy                               :         0.57065950
 Kinetic energy                             :        75.79572426
 Coulomb energy                             :      -141.20378684
 Exchange energy                            :       -10.11173991
 Correlation energy                         :        -0.50906347

 DOS at Fermi energy (states/Ha/cell)       :         0.00000000

 Electron charges :
     core                                   :         4.00000000
     core leakage                           :         0.00057971
     valence                                :         8.00000000
     interstitial                           :         3.97580683
     charge in muffin-tin spheres :
                  atom     1     C          :         4.01209659
                  atom     2     C          :         4.01209659
     total charge in muffin-tins            :         8.02419317
     total charge                           :        12.00000000

 Estimated fundamental gap                  :         0.13906213
        valence-band maximum at    1      0.0000  0.0000  0.0000
     conduction-band minimum at   10      0.3333  0.3333  0.0000

 Wall time (seconds)                        :        20.54

 RMS change in effective potential (target) :  0.515360E-01  ( 0.100000E-05)
 Absolute change in total energy   (target) :  0.294211      ( 0.100000E-05)
 Charge distance                   (target) :  0.936900E-02  ( 0.100000E-04)
 Abs. change in max-nonIBS-force   (target) :   0.00000      ( 0.500000E-04)

++++++++++++++++++++++++++++++++++++++++++++++++++++++++++++++++++++++++++++++++
| SCF iteration number :    5                                                  +
++++++++++++++++++++++++++++++++++++++++++++++++++++++++++++++++++++++++++++++++
 Total energy                               :       -75.82578009
 _______________________________________________________________
 Fermi energy                               :         0.57668481
 Kinetic energy                             :        75.89596876
 Coulomb energy                             :      -141.11058189
 Exchange energy                            :       -10.10151886
 Correlation energy                         :        -0.50964810

 DOS at Fermi energy (states/Ha/cell)       :         0.00000000

 Electron charges :
     core                                   :         4.00000000
     core leakage                           :         0.00058484
     valence                                :         8.00000000
     interstitial                           :         3.99548882
     charge in muffin-tin spheres :
                  atom     1     C          :         4.00225559
                  atom     2     C          :         4.00225559
     total charge in muffin-tins            :         8.00451118
     total charge                           :        12.00000000

 Estimated fundamental gap                  :         0.13485340
        valence-band maximum at    1      0.0000  0.0000  0.0000
     conduction-band minimum at   10      0.3333  0.3333  0.0000

 Wall time (seconds)                        :        25.44

 RMS change in effective potential (target) :  0.254202E-01  ( 0.100000E-05)
 Absolute change in total energy   (target) :  0.203086      ( 0.100000E-05)
 Charge distance                   (target) :  0.359317E-02  ( 0.100000E-04)
 Abs. change in max-nonIBS-force   (target) :   0.00000      ( 0.500000E-04)

++++++++++++++++++++++++++++++++++++++++++++++++++++++++++++++++++++++++++++++++
| SCF iteration number :    6                                                  +
++++++++++++++++++++++++++++++++++++++++++++++++++++++++++++++++++++++++++++++++
 Total energy                               :       -75.88680961
 _______________________________________________________________
 Fermi energy                               :         0.57491454
 Kinetic energy                             :        75.86642264
 Coulomb energy                             :      -141.13910662
 Exchange energy                            :       -10.10465866
 Correlation energy                         :        -0.50946697

 DOS at Fermi energy (states/Ha/cell)       :         0.00000000

 Electron charges :
     core                                   :         4.00000000
     core leakage                           :         0.00058329
     valence                                :         8.00000000
     interstitial                           :         3.98943301
     charge in muffin-tin spheres :
                  atom     1     C          :         4.00528349
                  atom     2     C          :         4.00528349
     total charge in muffin-tins            :         8.01056699
     total charge                           :        12.00000000

 Estimated fundamental gap                  :         0.13616402
        valence-band maximum at    1      0.0000  0.0000  0.0000
     conduction-band minimum at   10      0.3333  0.3333  0.0000

 Wall time (seconds)                        :        30.37

 RMS change in effective potential (target) :  0.393960E-03  ( 0.100000E-05)
 Absolute change in total energy   (target) :  0.610295E-01  ( 0.100000E-05)
 Charge distance                   (target) :  0.110888E-02  ( 0.100000E-04)
 Abs. change in max-nonIBS-force   (target) :   0.00000      ( 0.500000E-04)

++++++++++++++++++++++++++++++++++++++++++++++++++++++++++++++++++++++++++++++++
| SCF iteration number :    7                                                  +
++++++++++++++++++++++++++++++++++++++++++++++++++++++++++++++++++++++++++++++++
 Total energy                               :       -75.88811395
 _______________________________________________________________
 Fermi energy                               :         0.57487617
 Kinetic energy                             :        75.86575507
 Coulomb energy                             :      -141.13968725
 Exchange energy                            :       -10.10471790
 Correlation energy                         :        -0.50946387

 DOS at Fermi energy (states/Ha/cell)       :         0.00000000

 Electron charges :
     core                                   :         4.00000000
     core leakage                           :         0.00058325
     valence                                :         8.00000000
     interstitial                           :         3.98932381
     charge in muffin-tin spheres :
                  atom     1     C          :         4.00533810
                  atom     2     C          :         4.00533810
     total charge in muffin-tins            :         8.01067619
     total charge                           :        12.00000000

 Estimated fundamental gap                  :         0.13618522
        valence-band maximum at    1      0.0000  0.0000  0.0000
     conduction-band minimum at   10      0.3333  0.3333  0.0000

 Wall time (seconds)                        :        35.32

 RMS change in effective potential (target) :  0.731813E-04  ( 0.100000E-05)
 Absolute change in total energy   (target) :  0.130434E-02  ( 0.100000E-05)
 Charge distance                   (target) :  0.193883E-04  ( 0.100000E-04)
 Abs. change in max-nonIBS-force   (target) :   0.00000      ( 0.500000E-04)

++++++++++++++++++++++++++++++++++++++++++++++++++++++++++++++++++++++++++++++++
| SCF iteration number :    8                                                  +
++++++++++++++++++++++++++++++++++++++++++++++++++++++++++++++++++++++++++++++++
 Total energy                               :       -75.88801496
 _______________________________________________________________
 Fermi energy                               :         0.57487849
 Kinetic energy                             :        75.86579932
 Coulomb energy                             :      -141.13963695
 Exchange energy                            :       -10.10471325
 Correlation energy                         :        -0.50946408

 DOS at Fermi energy (states/Ha/cell)       :         0.00000000

 Electron charges :
     core                                   :         4.00000000
     core leakage                           :         0.00058326
     valence                                :         8.00000000
     interstitial                           :         3.98933139
     charge in muffin-tin spheres :
                  atom     1     C          :         4.00533430
                  atom     2     C          :         4.00533430
     total charge in muffin-tins            :         8.01066861
     total charge                           :        12.00000000

 Estimated fundamental gap                  :         0.13618385
        valence-band maximum at    1      0.0000  0.0000  0.0000
     conduction-band minimum at   10      0.3333  0.3333  0.0000

 Wall time (seconds)                        :        40.25

 RMS change in effective potential (target) :  0.555189E-05  ( 0.100000E-05)
 Absolute change in total energy   (target) :  0.989888E-04  ( 0.100000E-05)
 Charge distance                   (target) :  0.131573E-05  ( 0.100000E-04)
 Abs. change in max-nonIBS-force   (target) :   0.00000      ( 0.500000E-04)

++++++++++++++++++++++++++++++++++++++++++++++++++++++++++++++++++++++++++++++++
| SCF iteration number :    9                                                  +
++++++++++++++++++++++++++++++++++++++++++++++++++++++++++++++++++++++++++++++++
 Total energy                               :       -75.88800881
 _______________________________________________________________
 Fermi energy                               :         0.57487877
 Kinetic energy                             :        75.86580342
 Coulomb energy                             :      -141.13963520
 Exchange energy                            :       -10.10471292
 Correlation energy                         :        -0.50946411

 DOS at Fermi energy (states/Ha/cell)       :         0.00000000

 Electron charges :
     core                                   :         4.00000000
     core leakage                           :         0.00058326
     valence                                :         8.00000000
     interstitial                           :         3.98933224
     charge in muffin-tin spheres :
                  atom     1     C          :         4.00533388
                  atom     2     C          :         4.00533388
     total charge in muffin-tins            :         8.01066776
     total charge                           :        12.00000000

 Estimated fundamental gap                  :         0.13618364
        valence-band maximum at    1      0.0000  0.0000  0.0000
     conduction-band minimum at   10      0.3333  0.3333  0.0000

 Wall time (seconds)                        :        45.20

 RMS change in effective potential (target) :  0.705108E-06  ( 0.100000E-05)
 Absolute change in total energy   (target) :  0.614780E-05  ( 0.100000E-05)
 Charge distance                   (target) :  0.164951E-06  ( 0.100000E-04)
 Abs. change in max-nonIBS-force   (target) :   0.00000      ( 0.500000E-04)

++++++++++++++++++++++++++++++++++++++++++++++++++++++++++++++++++++++++++++++++
| SCF iteration number :   10                                                  +
++++++++++++++++++++++++++++++++++++++++++++++++++++++++++++++++++++++++++++++++
 Total energy                               :       -75.88801026
 _______________________________________________________________
 Fermi energy                               :         0.57487871
 Kinetic energy                             :        75.86580257
 Coulomb energy                             :      -141.13963573
 Exchange energy                            :       -10.10471300
 Correlation energy                         :        -0.50946410

 DOS at Fermi energy (states/Ha/cell)       :         0.00000000

 Electron charges :
     core                                   :         4.00000000
     core leakage                           :         0.00058326
     valence                                :         8.00000000
     interstitial                           :         3.98933206
     charge in muffin-tin spheres :
                  atom     1     C          :         4.00533397
                  atom     2     C          :         4.00533397
     total charge in muffin-tins            :         8.01066794
     total charge                           :        12.00000000

 Estimated fundamental gap                  :         0.13618368
        valence-band maximum at    1      0.0000  0.0000  0.0000
     conduction-band minimum at   10      0.3333  0.3333  0.0000

 Wall time (seconds)                        :        50.13

 RMS change in effective potential (target) :  0.213948E-07  ( 0.100000E-05)
 Absolute change in total energy   (target) :  0.144559E-05  ( 0.100000E-05)
 Charge distance                   (target) :  0.350808E-07  ( 0.100000E-04)
 Abs. change in max-nonIBS-force   (target) :   0.00000      ( 0.500000E-04)

++++++++++++++++++++++++++++++++++++++++++++++++++++++++++++++++++++++++++++++++
| SCF iteration number :   11                                                  +
++++++++++++++++++++++++++++++++++++++++++++++++++++++++++++++++++++++++++++++++
 Total energy                               :       -75.88801015
 _______________________________________________________________
 Fermi energy                               :         0.57487872
 Kinetic energy                             :        75.86580263
 Coulomb energy                             :      -141.13963568
 Exchange energy                            :       -10.10471300
 Correlation energy                         :        -0.50946410

 DOS at Fermi energy (states/Ha/cell)       :         0.00000000

 Electron charges :
     core                                   :         4.00000000
     core leakage                           :         0.00058326
     valence                                :         8.00000000
     interstitial                           :         3.98933207
     charge in muffin-tin spheres :
                  atom     1     C          :         4.00533396
                  atom     2     C          :         4.00533396
     total charge in muffin-tins            :         8.01066793
     total charge                           :        12.00000000

 Estimated fundamental gap                  :         0.13618368
        valence-band maximum at    1      0.0000  0.0000  0.0000
     conduction-band minimum at   10      0.3333  0.3333  0.0000

 Wall time (seconds)                        :        55.06

 RMS change in effective potential (target) :  0.188251E-07  ( 0.100000E-05)
 Absolute change in total energy   (target) :  0.106929E-06  ( 0.100000E-05)
 Charge distance                   (target) :  0.250674E-08  ( 0.100000E-04)
 Abs. change in max-nonIBS-force   (target) :   0.00000      ( 0.500000E-04)

++++++++++++++++++++++++++++++++++++++++++++++++++++++++++++++++++++++++++++++++
| SCF iteration number :   12                                                  +
++++++++++++++++++++++++++++++++++++++++++++++++++++++++++++++++++++++++++++++++
 Total energy                               :       -75.88801014
 _______________________________________________________________
 Fermi energy                               :         0.57487872
 Kinetic energy                             :        75.86580264
 Coulomb energy                             :      -141.13963568
 Exchange energy                            :       -10.10471300
 Correlation energy                         :        -0.50946410

 DOS at Fermi energy (states/Ha/cell)       :         0.00000000

 Electron charges :
     core                                   :         4.00000000
     core leakage                           :         0.00058326
     valence                                :         8.00000000
     interstitial                           :         3.98933207
     charge in muffin-tin spheres :
                  atom     1     C          :         4.00533396
                  atom     2     C          :         4.00533396
     total charge in muffin-tins            :         8.01066793
     total charge                           :        12.00000000

 Estimated fundamental gap                  :         0.13618368
        valence-band maximum at    1      0.0000  0.0000  0.0000
     conduction-band minimum at   10      0.3333  0.3333  0.0000

 Wall time (seconds)                        :        60.02

 RMS change in effective potential (target) :  0.831256E-08  ( 0.100000E-05)
 Absolute change in total energy   (target) :  0.825838E-08  ( 0.100000E-05)
 Charge distance                   (target) :  0.191823E-09  ( 0.100000E-04)
 Abs. change in max-nonIBS-force   (target) :   0.00000      ( 0.500000E-04)
                                                                                
++++++++++++++++++++++++++++++++++++++++++++++++++++++++++++++++++++++++++++++++
| Convergency criteria checked for the last 2 iterations                       +
| Convergence targets achieved. Performing final SCF iteration                 +
++++++++++++++++++++++++++++++++++++++++++++++++++++++++++++++++++++++++++++++++
 Total energy                               :       -75.88801015
 _______________________________________________________________
 Fermi energy                               :         0.57487872
 Kinetic energy                             :        75.86580263
 Coulomb energy                             :      -141.13963568
 Exchange energy                            :       -10.10471300
 Correlation energy                         :        -0.50946410

 DOS at Fermi energy (states/Ha/cell)       :         0.00000000

 Electron charges :
     core                                   :         4.00000000
     core leakage                           :         0.00058326
     valence                                :         8.00000000
     interstitial                           :         3.98933207
     charge in muffin-tin spheres :
                  atom     1     C          :         4.00533396
                  atom     2     C          :         4.00533396
     total charge in muffin-tins            :         8.01066793
     total charge                           :        12.00000000

 Estimated fundamental gap                  :         0.13618368
        valence-band maximum at    1      0.0000  0.0000  0.0000
     conduction-band minimum at   10      0.3333  0.3333  0.0000

++++++++++++++++++++++++++++++++++++++++++++++++++++++++++++++++++++++++++++++++
| Self-consistent loop stopped                                                 +
++++++++++++++++++++++++++++++++++++++++++++++++++++++++++++++++++++++++++++++++
 STATE.OUT is written

--------------------------------------------------------------------------------
| Writing atomic positions and forces                                          -
--------------------------------------------------------------------------------

 Atomic positions (lattice) :
 atom     1   C  :     0.00000000    0.00000000    0.00000000
 atom     2   C  :     0.25000000    0.25000000    0.25000000

 Total atomic forces including IBS (cartesian) :
 atom     1   C  :     0.00000000    0.00000000   -0.00000000
 atom     2   C  :     0.00000000    0.00000000    0.00000000

 Atomic force components including IBS (cartesian) :
 atom     1   C  :     0.00000000    0.00000000   -0.00000000   HF force
                 :     0.00000000    0.00000000   -0.00000000   core correction
                 :     0.00000000    0.00000000    0.00000000   IBS correction
 atom     2   C  :     0.00000000    0.00000000    0.00000000   HF force
                 :    -0.00000000   -0.00000000    0.00000000   core correction
                 :    -0.00000000   -0.00000000    0.00000000   IBS correction

********************************************************************************
| Groundstate module stopped                                                   *
********************************************************************************

********************************************************************************
| Structure-optimization module started                                        *
********************************************************************************
 Output level for this task is set to normal

 Maximum displacement tau_BFGS   is         :         0.3000
 Maximum displacement tau_newton is         :         0.2000
 Maximum force target reached already at the initial configuration

********************************************************************************
| Structure-optimization module stopped                                        *
********************************************************************************

 Total time spent (seconds)                 :        65.70

================================================================================
| EXCITING CARBON stopped                                                      =
================================================================================
