================================================================================
| EXCITING BORON started                                                       =
| version hash id:                                                             =
| MPI version using     16 processor(s)                                        =
|                                                                              =
| Date (DD-MM-YYYY) : 09-08-2015                                               =
| Time (hh:mm:ss)   : 22:07:38                                                 =
|                                                                              =
| All units are atomic (Hartree, Bohr, etc.)                                   =
================================================================================
 
********************************************************************************
| Structural optimisation starting from atomic densities                       *
********************************************************************************
 
++++++++++++++++++++++++++++++++++++++++++++++++++++++++++++++++++++++++++++++++
| Starting initialization                                                      +
++++++++++++++++++++++++++++++++++++++++++++++++++++++++++++++++++++++++++++++++
 
 Lattice vectors (cartesian) :
      2.1327307284      3.6939979805      0.0000000000
     -2.1327307284      3.6939979805      0.0000000000
      0.0000000000      0.0000000000      6.0270970386
 
 Reciprocal lattice vectors (cartesian) :
      1.4730376469      0.8504586819      0.0000000000
     -1.4730376469      0.8504586819      0.0000000000
      0.0000000000      0.0000000000      1.0424894882
 
 Unit cell volume                           :      94.9665934057
 Brillouin zone volume                      :       2.6119733745
 
 Species :    1 (C)
     parameters loaded from                 :    C.xml
     name                                   :    carbon
     nuclear charge                         :      -6.00000000
     electronic charge                      :       6.00000000
     atomic mass                            :   21894.16673000
     muffin-tin radius                      :       1.20000000
     # of radial points in muffin-tin       :     250
 
     atomic positions (lattice) :
       1 :   0.00000000  0.00000000  0.00000000
       2 :   0.33333333  0.33333333  0.00000000
 
 Total number of atoms per unit cell        :       2
 
 Spin treatment                             :    spin-unpolarised
 
 Number of Bravais lattice symmetries       :      24
 Number of crystal symmetries               :      24
 
 k-point grid                               :      34   34   24
 Total number of k-points                   :    1482
 k-point set is reduced with crystal symmetries
 
 R^MT_min * |G+k|_max (rgkmax)              :       8.00000000
 Species with R^MT_min                      :       1 (C)
 Maximum |G+k| for APW functions            :       6.66666667
 Maximum |G| for potential and density      :      20.00000000
 
 G-vector grid sizes                        :      30    30    40
 Total number of G-vectors                  :   12837
 
 Maximum angular momentum used for
     APW functions                          :       8
     computing H and O matrix elements      :       8
     potential and density                  :       8
     inner part of muffin-tin               :       2
 
 Total nuclear charge                       :     -12.00000000
 Total electronic charge                    :      12.00000000
 Total core charge                          :       4.00000000
 Total valence charge                       :       8.00000000
 
 Number of empty states                     :       5
 Total number of valence states             :      10
 
 Maximum Hamiltonian size                   :     500
 Maximum number of plane-waves              :     492
 Total number of local-orbitals             :       8
 
 Exchange-correlation type                  :      20
     Perdew-Burke-Ernzerhof, Phys. Rev. Lett. 77, 3865 (1996)
     Generalised gradient approximation (GGA)
 
 Smearing scheme                            :    Gaussian
 Smearing width                             :       0.01000000
 
 Using multisecant Broyden potential mixing
 
++++++++++++++++++++++++++++++++++++++++++++++++++++++++++++++++++++++++++++++++
| Ending initialization                                                        +
++++++++++++++++++++++++++++++++++++++++++++++++++++++++++++++++++++++++++++++++
 
********************************************************************************
| Groundstate module started                                                   *
********************************************************************************
 Output level for this task is set to normal
 
++++++++++++++++++++++++++++++++++++++++++++++++++++++++++++++++++++++++++++++++
| Self-consistent loop started                                                 +
++++++++++++++++++++++++++++++++++++++++++++++++++++++++++++++++++++++++++++++++
 Density and potential initialised from atomic data
 
 
++++++++++++++++++++++++++++++++++++++++++++++++++++++++++++++++++++++++++++++++
| SCF iteration number :    1                                                  +
++++++++++++++++++++++++++++++++++++++++++++++++++++++++++++++++++++++++++++++++
 Total energy                               :       -79.26552340
 _______________________________________________________________
 Fermi energy                               :         0.24915449
 Kinetic energy                             :        74.87359361
 Coulomb energy                             :      -142.95653788
 Exchange energy                            :       -10.74923698
 Correlation energy                         :        -0.43334215
 
 DOS at Fermi energy (states/Ha/cell)       :         0.79913061
 
 Electron charges :
     core                                   :         4.00000000
     core leakage                           :         0.00130593
     valence                                :         8.00000000
     interstitial                           :         4.01063805
     charge in muffin-tin spheres :
                  atom     1     C          :         3.99468097
                  atom     2     C          :         3.99468097
     total charge in muffin-tins            :         7.98936195
     total charge                           :        12.00000000
 
 Wall time (seconds)                        :        21.56
 
++++++++++++++++++++++++++++++++++++++++++++++++++++++++++++++++++++++++++++++++
| SCF iteration number :    2                                                  +
++++++++++++++++++++++++++++++++++++++++++++++++++++++++++++++++++++++++++++++++
 Total energy                               :       -78.13865420
 _______________________________________________________________
 Fermi energy                               :         0.27923414
 Kinetic energy                             :        75.64491733
 Coulomb energy                             :      -142.65209237
 Exchange energy                            :       -10.69678630
 Correlation energy                         :        -0.43469286
 
 DOS at Fermi energy (states/Ha/cell)       :         0.87122366
 
 Electron charges :
     core                                   :         4.00000000
     core leakage                           :         0.00132653
     valence                                :         8.00000000
     interstitial                           :         4.10014615
     charge in muffin-tin spheres :
                  atom     1     C          :         3.94992692
                  atom     2     C          :         3.94992692
     total charge in muffin-tins            :         7.89985385
     total charge                           :        12.00000000
 
 Wall time (seconds)                        :        41.45
 
 RMS change in effective potential (target) :   1.70281      ( 0.100000E-05)
 Absolute change in total energy   (target) :   1.12687      ( 0.100000E-06)
 Charge distance                   (target) :  0.168960E-01  ( 0.100000E-04)
 Abs. change in max-nonIBS-force   (target) :   0.00000      ( 0.250000E-05)
 
++++++++++++++++++++++++++++++++++++++++++++++++++++++++++++++++++++++++++++++++
| SCF iteration number :    3                                                  +
++++++++++++++++++++++++++++++++++++++++++++++++++++++++++++++++++++++++++++++++
 Total energy                               :       -77.33394106
 _______________________________________________________________
 Fermi energy                               :         0.29959093
 Kinetic energy                             :        76.18932681
 Coulomb energy                             :      -142.42914564
 Exchange energy                            :       -10.65834150
 Correlation energy                         :        -0.43578072
 
 DOS at Fermi energy (states/Ha/cell)       :         0.94081781
 
 Electron charges :
     core                                   :         4.00000000
     core leakage                           :         0.00134039
     valence                                :         8.00000000
     interstitial                           :         4.16658970
     charge in muffin-tin spheres :
                  atom     1     C          :         3.91670515
                  atom     2     C          :         3.91670515
     total charge in muffin-tins            :         7.83341030
     total charge                           :        12.00000000
 
 Wall time (seconds)                        :        61.42
 
 RMS change in effective potential (target) :   1.26361      ( 0.100000E-05)
 Absolute change in total energy   (target) :  0.804713      ( 0.100000E-06)
 Charge distance                   (target) :  0.126680E-01  ( 0.100000E-04)
 Abs. change in max-nonIBS-force   (target) :   0.00000      ( 0.250000E-05)
 
++++++++++++++++++++++++++++++++++++++++++++++++++++++++++++++++++++++++++++++++
| SCF iteration number :    4                                                  +
++++++++++++++++++++++++++++++++++++++++++++++++++++++++++++++++++++++++++++++++
 Total energy                               :       -76.89809068
 _______________________________________________________________
 Fermi energy                               :         0.30870451
 Kinetic energy                             :        76.49505217
 Coulomb energy                             :      -142.32333674
 Exchange energy                            :       -10.63318605
 Correlation energy                         :        -0.43662007
 
 DOS at Fermi energy (states/Ha/cell)       :         1.00877336
 
 Electron charges :
     core                                   :         4.00000000
     core leakage                           :         0.00133515
     valence                                :         8.00000000
     interstitial                           :         4.21648923
     charge in muffin-tin spheres :
                  atom     1     C          :         3.89175538
                  atom     2     C          :         3.89175538
     total charge in muffin-tins            :         7.78351077
     total charge                           :        12.00000000
 
 Wall time (seconds)                        :        81.64
 
 RMS change in effective potential (target) :  0.989520E-01  ( 0.100000E-05)
 Absolute change in total energy   (target) :  0.435850      ( 0.100000E-06)
 Charge distance                   (target) :  0.986333E-02  ( 0.100000E-04)
 Abs. change in max-nonIBS-force   (target) :   0.00000      ( 0.250000E-05)
 
++++++++++++++++++++++++++++++++++++++++++++++++++++++++++++++++++++++++++++++++
| SCF iteration number :    5                                                  +
++++++++++++++++++++++++++++++++++++++++++++++++++++++++++++++++++++++++++++++++
 Total energy                               :       -75.87605707
 _______________________________________________________________
 Fermi energy                               :         0.33318948
 Kinetic energy                             :        77.15829865
 Coulomb energy                             :      -142.01096492
 Exchange energy                            :       -10.58527226
 Correlation energy                         :        -0.43811854
 
 DOS at Fermi energy (states/Ha/cell)       :         1.14985311
 
 Electron charges :
     core                                   :         4.00000000
     core leakage                           :         0.00136090
     valence                                :         8.00000000
     interstitial                           :         4.29634801
     charge in muffin-tin spheres :
                  atom     1     C          :         3.85182600
                  atom     2     C          :         3.85182600
     total charge in muffin-tins            :         7.70365199
     total charge                           :        12.00000000
 
 Wall time (seconds)                        :       101.90
 
 RMS change in effective potential (target) :  0.360398E-01  ( 0.100000E-05)
 Absolute change in total energy   (target) :   1.02203      ( 0.100000E-06)
 Charge distance                   (target) :  0.152659E-01  ( 0.100000E-04)
 Abs. change in max-nonIBS-force   (target) :   0.00000      ( 0.250000E-05)
 
++++++++++++++++++++++++++++++++++++++++++++++++++++++++++++++++++++++++++++++++
| SCF iteration number :    6                                                  +
++++++++++++++++++++++++++++++++++++++++++++++++++++++++++++++++++++++++++++++++
 Total energy                               :       -76.16210916
 _______________________________________________________________
 Fermi energy                               :         0.32660194
 Kinetic energy                             :        76.97279950
 Coulomb energy                             :      -142.09830513
 Exchange energy                            :       -10.59891390
 Correlation energy                         :        -0.43768963
 
 DOS at Fermi energy (states/Ha/cell)       :         1.10307097
 
 Electron charges :
     core                                   :         4.00000000
     core leakage                           :         0.00135423
     valence                                :         8.00000000
     interstitial                           :         4.27341828
     charge in muffin-tin spheres :
                  atom     1     C          :         3.86329086
                  atom     2     C          :         3.86329086
     total charge in muffin-tins            :         7.72658172
     total charge                           :        12.00000000
 
 Wall time (seconds)                        :       122.15
 
 RMS change in effective potential (target) :  0.124732E-02  ( 0.100000E-05)
 Absolute change in total energy   (target) :  0.286052      ( 0.100000E-06)
 Charge distance                   (target) :  0.443927E-02  ( 0.100000E-04)
 Abs. change in max-nonIBS-force   (target) :   0.00000      ( 0.250000E-05)
 
++++++++++++++++++++++++++++++++++++++++++++++++++++++++++++++++++++++++++++++++
| SCF iteration number :    7                                                  +
++++++++++++++++++++++++++++++++++++++++++++++++++++++++++++++++++++++++++++++++
 Total energy                               :       -76.15857934
 _______________________________________________________________
 Fermi energy                               :         0.32667276
 Kinetic energy                             :        76.97572418
 Coulomb energy                             :      -142.09786924
 Exchange energy                            :       -10.59874234
 Correlation energy                         :        -0.43769194
 
 DOS at Fermi energy (states/Ha/cell)       :         1.10412380
 
 Electron charges :
     core                                   :         4.00000000
     core leakage                           :         0.00135413
     valence                                :         8.00000000
     interstitial                           :         4.27374837
     charge in muffin-tin spheres :
                  atom     1     C          :         3.86312582
                  atom     2     C          :         3.86312582
     total charge in muffin-tins            :         7.72625163
     total charge                           :        12.00000000
 
 Wall time (seconds)                        :       142.69
 
 RMS change in effective potential (target) :  0.255486E-03  ( 0.100000E-05)
 Absolute change in total energy   (target) :  0.352982E-02  ( 0.100000E-06)
 Charge distance                   (target) :  0.881194E-04  ( 0.100000E-04)
 Abs. change in max-nonIBS-force   (target) :   0.00000      ( 0.250000E-05)
 
++++++++++++++++++++++++++++++++++++++++++++++++++++++++++++++++++++++++++++++++
| SCF iteration number :    8                                                  +
++++++++++++++++++++++++++++++++++++++++++++++++++++++++++++++++++++++++++++++++
 Total energy                               :       -76.16055427
 _______________________________________________________________
 Fermi energy                               :         0.32662580
 Kinetic energy                             :        76.97429506
 Coulomb energy                             :      -142.09832856
 Exchange energy                            :       -10.59883110
 Correlation energy                         :        -0.43768966
 
 DOS at Fermi energy (states/Ha/cell)       :         1.10376512
 
 Electron charges :
     core                                   :         4.00000000
     core leakage                           :         0.00135411
     valence                                :         8.00000000
     interstitial                           :         4.27359137
     charge in muffin-tin spheres :
                  atom     1     C          :         3.86320432
                  atom     2     C          :         3.86320432
     total charge in muffin-tins            :         7.72640863
     total charge                           :        12.00000000
 
 Wall time (seconds)                        :       162.96
 
 RMS change in effective potential (target) :  0.430234E-04  ( 0.100000E-05)
 Absolute change in total energy   (target) :  0.197493E-02  ( 0.100000E-06)
 Charge distance                   (target) :  0.331318E-04  ( 0.100000E-04)
 Abs. change in max-nonIBS-force   (target) :   0.00000      ( 0.250000E-05)
 
++++++++++++++++++++++++++++++++++++++++++++++++++++++++++++++++++++++++++++++++
| SCF iteration number :    9                                                  +
++++++++++++++++++++++++++++++++++++++++++++++++++++++++++++++++++++++++++++++++
 Total energy                               :       -76.16047238
 _______________________________________________________________
 Fermi energy                               :         0.32662744
 Kinetic energy                             :        76.97433775
 Coulomb energy                             :      -142.09829331
 Exchange energy                            :       -10.59882701
 Correlation energy                         :        -0.43768982
 
 DOS at Fermi energy (states/Ha/cell)       :         1.10377284
 
 Electron charges :
     core                                   :         4.00000000
     core leakage                           :         0.00135412
     valence                                :         8.00000000
     interstitial                           :         4.27359748
     charge in muffin-tin spheres :
                  atom     1     C          :         3.86320126
                  atom     2     C          :         3.86320126
     total charge in muffin-tins            :         7.72640252
     total charge                           :        12.00000000
 
 Wall time (seconds)                        :       183.26
 
 RMS change in effective potential (target) :  0.185687E-05  ( 0.100000E-05)
 Absolute change in total energy   (target) :  0.818867E-04  ( 0.100000E-06)
 Charge distance                   (target) :  0.111686E-05  ( 0.100000E-04)
 Abs. change in max-nonIBS-force   (target) :   0.00000      ( 0.250000E-05)
 
++++++++++++++++++++++++++++++++++++++++++++++++++++++++++++++++++++++++++++++++
| SCF iteration number :   10                                                  +
++++++++++++++++++++++++++++++++++++++++++++++++++++++++++++++++++++++++++++++++
 Total energy                               :       -76.16047375
 _______________________________________________________________
 Fermi energy                               :         0.32662745
 Kinetic energy                             :        76.97433723
 Coulomb energy                             :      -142.09829407
 Exchange energy                            :       -10.59882709
 Correlation energy                         :        -0.43768982
 
 DOS at Fermi energy (states/Ha/cell)       :         1.10377268
 
 Electron charges :
     core                                   :         4.00000000
     core leakage                           :         0.00135412
     valence                                :         8.00000000
     interstitial                           :         4.27359738
     charge in muffin-tin spheres :
                  atom     1     C          :         3.86320131
                  atom     2     C          :         3.86320131
     total charge in muffin-tins            :         7.72640262
     total charge                           :        12.00000000
 
 Wall time (seconds)                        :       203.58
 
 RMS change in effective potential (target) :  0.404289E-07  ( 0.100000E-05)
 Absolute change in total energy   (target) :  0.136641E-05  ( 0.100000E-06)
 Charge distance                   (target) :  0.200536E-07  ( 0.100000E-04)
 Abs. change in max-nonIBS-force   (target) :   0.00000      ( 0.250000E-05)
 
++++++++++++++++++++++++++++++++++++++++++++++++++++++++++++++++++++++++++++++++
| SCF iteration number :   11                                                  +
++++++++++++++++++++++++++++++++++++++++++++++++++++++++++++++++++++++++++++++++
 Total energy                               :       -76.16047339
 _______________________________________________________________
 Fermi energy                               :         0.32662746
 Kinetic energy                             :        76.97433752
 Coulomb energy                             :      -142.09829401
 Exchange energy                            :       -10.59882707
 Correlation energy                         :        -0.43768982
 
 DOS at Fermi energy (states/Ha/cell)       :         1.10377276
 
 Electron charges :
     core                                   :         4.00000000
     core leakage                           :         0.00135412
     valence                                :         8.00000000
     interstitial                           :         4.27359741
     charge in muffin-tin spheres :
                  atom     1     C          :         3.86320130
                  atom     2     C          :         3.86320130
     total charge in muffin-tins            :         7.72640259
     total charge                           :        12.00000000
 
 Wall time (seconds)                        :       223.92
 
 RMS change in effective potential (target) :  0.181835E-07  ( 0.100000E-05)
 Absolute change in total energy   (target) :  0.362810E-06  ( 0.100000E-06)
 Charge distance                   (target) :  0.838170E-08  ( 0.100000E-04)
 Abs. change in max-nonIBS-force   (target) :   0.00000      ( 0.250000E-05)
 
++++++++++++++++++++++++++++++++++++++++++++++++++++++++++++++++++++++++++++++++
| SCF iteration number :   12                                                  +
++++++++++++++++++++++++++++++++++++++++++++++++++++++++++++++++++++++++++++++++
 Total energy                               :       -76.16047340
 _______________________________________________________________
 Fermi energy                               :         0.32662745
 Kinetic energy                             :        76.97433750
 Coulomb energy                             :      -142.09829401
 Exchange energy                            :       -10.59882707
 Correlation energy                         :        -0.43768982
 
 DOS at Fermi energy (states/Ha/cell)       :         1.10377276
 
 Electron charges :
     core                                   :         4.00000000
     core leakage                           :         0.00135412
     valence                                :         8.00000000
     interstitial                           :         4.27359741
     charge in muffin-tin spheres :
                  atom     1     C          :         3.86320130
                  atom     2     C          :         3.86320130
     total charge in muffin-tins            :         7.72640259
     total charge                           :        12.00000000
 
 Wall time (seconds)                        :       244.27
 
 RMS change in effective potential (target) :  0.322104E-08  ( 0.100000E-05)
 Absolute change in total energy   (target) :  0.192600E-07  ( 0.100000E-06)
 Charge distance                   (target) :  0.489714E-09  ( 0.100000E-04)
 Abs. change in max-nonIBS-force   (target) :   0.00000      ( 0.250000E-05)
 
++++++++++++++++++++++++++++++++++++++++++++++++++++++++++++++++++++++++++++++++
| Convergence targets achieved. Performing final SCF iteration                 +
++++++++++++++++++++++++++++++++++++++++++++++++++++++++++++++++++++++++++++++++
 Total energy                               :       -76.17230224
 _______________________________________________________________
 Fermi energy                               :         0.32662745
 Kinetic energy                             :        76.97433750
 Coulomb energy                             :      -142.09829401
 Exchange energy                            :       -10.59882707
 Correlation energy                         :        -0.43768982
 DFT-D2 dispersion correction               :        -0.01182883
 
 DOS at Fermi energy (states/Ha/cell)       :         1.10377276
 
 Electron charges :
     core                                   :         4.00000000
     core leakage                           :         0.00135412
     valence                                :         8.00000000
     interstitial                           :         4.27359741
     charge in muffin-tin spheres :
                  atom     1     C          :         3.86320130
                  atom     2     C          :         3.86320130
     total charge in muffin-tins            :         7.72640259
     total charge                           :        12.00000000
 
++++++++++++++++++++++++++++++++++++++++++++++++++++++++++++++++++++++++++++++++
| Self-consistent loop stopped                                                 +
++++++++++++++++++++++++++++++++++++++++++++++++++++++++++++++++++++++++++++++++
 STATE.OUT is written
 
--------------------------------------------------------------------------------
| Writing atomic positions and forces                                          -
--------------------------------------------------------------------------------
 
 Atomic positions (lattice) :
 atom     1   C  :     0.00000000    0.00000000    0.00000000
 atom     2   C  :     0.33333333    0.33333333    0.00000000
 
 Total atomic forces including IBS (cartesian) :
 atom     1   C  :     0.00000000    0.00000000    0.00000000
 atom     2   C  :     0.00000000    0.00000000    0.00000000
 
 Atomic force components including IBS (cartesian) :
 atom     1   C  :     0.00000000    0.00000000    0.00000000   HF force
                 :     0.00000000    0.00000000    0.00000000   core correction
                 :     0.00000000    0.00000000    0.00000000   IBS correction
                 :     0.00000000    0.00000000    0.00000000   DFT-D2 force
 atom     2   C  :     0.00000000    0.00000000    0.00000000   HF force
                 :     0.00000000    0.00000000    0.00000000   core correction
                 :     0.00000000    0.00000000    0.00000000   IBS correction
                 :     0.00000000    0.00000000    0.00000000   DFT-D2 force
 
********************************************************************************
| Groundstate module stopped                                                   *
********************************************************************************
 
********************************************************************************
| Structure-optimization module started                                        *
********************************************************************************
 Output level for this task is set to normal
 
 Maximum displacement tau_BFGS   is         :         0.3000
 Maximum displacement tau_newton is         :         0.8000
 Maximum force target reached already at the initial configuration
 
********************************************************************************
| Structure-optimization module stopped                                        *
********************************************************************************
 
 Total time spent (seconds)                 :       282.97
 
================================================================================
| EXCITING BORON stopped                                                       =
================================================================================
