ESCALE ; pCOHP file generated by LOBSTER. Energy is shifted such that the Fermi level lies at 0 eV.
      1089          2         11  -1.07983e+01   2.19779e+01   5.58984e+00 
Average
No.1:Si1->Si1(5.4687279999999996)
No.1:Si1[3s]->Si1[3s](5.4687279999999996)
No.1:Si1[3p_y]->Si1[3s](5.4687279999999996)
No.1:Si1[3p_z]->Si1[3s](5.4687279999999996)
No.1:Si1[3p_x]->Si1[3s](5.4687279999999996)
No.1:Si1[3s]->Si1[3p_y](5.4687279999999996)
No.1:Si1[3p_y]->Si1[3p_y](5.4687279999999996)
No.1:Si1[3p_z]->Si1[3p_y](5.4687279999999996)
No.1:Si1[3p_x]->Si1[3p_y](5.4687279999999996)
No.1:Si1[3s]->Si1[3p_z](5.4687279999999996)
No.1:Si1[3p_y]->Si1[3p_z](5.4687279999999996)
No.1:Si1[3p_z]->Si1[3p_z](5.4687279999999996)
No.1:Si1[3p_x]->Si1[3p_z](5.4687279999999996)
No.1:Si1[3s]->Si1[3p_x](5.4687279999999996)
No.1:Si1[3p_y]->Si1[3p_x](5.4687279999999996)
No.1:Si1[3p_z]->Si1[3p_x](5.4687279999999996)
No.1:Si1[3p_x]->Si1[3p_x](5.4687279999999996)
No.2:Si1->Si1(3.8669746532647453)
No.2:Si1[3s]->Si1[3s](3.8669746532647453)
No.2:Si1[3p_y]->Si1[3s](3.8669746532647453)
No.2:Si1[3p_z]->Si1[3s](3.8669746532647453)
No.2:Si1[3p_x]->Si1[3s](3.8669746532647453)
No.2:Si1[3s]->Si1[3p_y](3.8669746532647453)
No.2:Si1[3p_y]->Si1[3p_y](3.8669746532647453)
No.2:Si1[3p_z]->Si1[3p_y](3.8669746532647453)
No.2:Si1[3p_x]->Si1[3p_y](3.8669746532647453)
No.2:Si1[3s]->Si1[3p_z](3.8669746532647453)
No.2:Si1[3p_y]->Si1[3p_z](3.8669746532647453)
No.2:Si1[3p_z]->Si1[3p_z](3.8669746532647453)
No.2:Si1[3p_x]->Si1[3p_z](3.8669746532647453)
No.2:Si1[3s]->Si1[3p_x](3.8669746532647453)
No.2:Si1[3p_y]->Si1[3p_x](3.8669746532647453)
No.2:Si1[3p_z]->Si1[3p_x](3.8669746532647453)
No.2:Si1[3p_x]->Si1[3p_x](3.8669746532647453)
No.3:Si1->Si1(3.8669746532647453)
No.3:Si1[3s]->Si1[3s](3.8669746532647453)
No.3:Si1[3p_y]->Si1[3s](3.8669746532647453)
No.3:Si1[3p_z]->Si1[3s](3.8669746532647453)
No.3:Si1[3p_x]->Si1[3s](3.8669746532647453)
No.3:Si1[3s]->Si1[3p_y](3.8669746532647453)
No.3:Si1[3p_y]->Si1[3p_y](3.8669746532647453)
No.3:Si1[3p_z]->Si1[3p_y](3.8669746532647453)
No.3:Si1[3p_x]->Si1[3p_y](3.8669746532647453)
No.3:Si1[3s]->Si1[3p_z](3.8669746532647453)
No.3:Si1[3p_y]->Si1[3p_z](3.8669746532647453)
No.3:Si1[3p_z]->Si1[3p_z](3.8669746532647453)
No.3:Si1[3p_x]->Si1[3p_z](3.8669746532647453)
No.3:Si1[3s]->Si1[3p_x](3.8669746532647453)
No.3:Si1[3p_y]->Si1[3p_x](3.8669746532647453)
No.3:Si1[3p_z]->Si1[3p_x](3.8669746532647453)
No.3:Si1[3p_x]->Si1[3p_x](3.8669746532647453)
No.4:Si1->Si1(5.4687279999999996)
No.4:Si1[3s]->Si1[3s](5.4687279999999996)
No.4:Si1[3p_y]->Si1[3s](5.4687279999999996)
No.4:Si1[3p_z]->Si1[3s](5.4687279999999996)
No.4:Si1[3p_x]->Si1[3s](5.4687279999999996)
No.4:Si1[3s]->Si1[3p_y](5.4687279999999996)
No.4:Si1[3p_y]->Si1[3p_y](5.4687279999999996)
No.4:Si1[3p_z]->Si1[3p_y](5.4687279999999996)
No.4:Si1[3p_x]->Si1[3p_y](5.4687279999999996)
No.4:Si1[3s]->Si1[3p_z](5.4687279999999996)
No.4:Si1[3p_y]->Si1[3p_z](5.4687279999999996)
No.4:Si1[3p_z]->Si1[3p_z](5.4687279999999996)
No.4:Si1[3p_x]->Si1[3p_z](5.4687279999999996)
No.4:Si1[3s]->Si1[3p_x](5.4687279999999996)
No.4:Si1[3p_y]->Si1[3p_x](5.4687279999999996)
No.4:Si1[3p_z]->Si1[3p_x](5.4687279999999996)
No.4:Si1[3p_x]->Si1[3p_x](5.4687279999999996)
No.5:Si1->Si1(3.8669746532647453)
No.5:Si1[3s]->Si1[3s](3.8669746532647453)
No.5:Si1[3p_y]->Si1[3s](3.8669746532647453)
No.5:Si1[3p_z]->Si1[3s](3.8669746532647453)
No.5:Si1[3p_x]->Si1[3s](3.8669746532647453)
No.5:Si1[3s]->Si1[3p_y](3.8669746532647453)
No.5:Si1[3p_y]->Si1[3p_y](3.8669746532647453)
No.5:Si1[3p_z]->Si1[3p_y](3.8669746532647453)
No.5:Si1[3p_x]->Si1[3p_y](3.8669746532647453)
No.5:Si1[3s]->Si1[3p_z](3.8669746532647453)
No.5:Si1[3p_y]->Si1[3p_z](3.8669746532647453)
No.5:Si1[3p_z]->Si1[3p_z](3.8669746532647453)
No.5:Si1[3p_x]->Si1[3p_z](3.8669746532647453)
No.5:Si1[3s]->Si1[3p_x](3.8669746532647453)
No.5:Si1[3p_y]->Si1[3p_x](3.8669746532647453)
No.5:Si1[3p_z]->Si1[3p_x](3.8669746532647453)
No.5:Si1[3p_x]->Si1[3p_x](3.8669746532647453)
No.6:Si1->Si1(5.4687279999999996)
No.6:Si1[3s]->Si1[3s](5.4687279999999996)
No.6:Si1[3p_y]->Si1[3s](5.4687279999999996)
No.6:Si1[3p_z]->Si1[3s](5.4687279999999996)
No.6:Si1[3p_x]->Si1[3s](5.4687279999999996)
No.6:Si1[3s]->Si1[3p_y](5.4687279999999996)
No.6:Si1[3p_y]->Si1[3p_y](5.4687279999999996)
No.6:Si1[3p_z]->Si1[3p_y](5.4687279999999996)
No.6:Si1[3p_x]->Si1[3p_y](5.4687279999999996)
No.6:Si1[3s]->Si1[3p_z](5.4687279999999996)
No.6:Si1[3p_y]->Si1[3p_z](5.4687279999999996)
No.6:Si1[3p_z]->Si1[3p_z](5.4687279999999996)
No.6:Si1[3p_x]->Si1[3p_z](5.4687279999999996)
No.6:Si1[3s]->Si1[3p_x](5.4687279999999996)
No.6:Si1[3p_y]->Si1[3p_x](5.4687279999999996)
No.6:Si1[3p_z]->Si1[3p_x](5.4687279999999996)
No.6:Si1[3p_x]->Si1[3p_x](5.4687279999999996)
No.7:Si1->Si1(3.8669746532647453)
No.7:Si1[3s]->Si1[3s](3.8669746532647453)
No.7:Si1[3p_y]->Si1[3s](3.8669746532647453)
No.7:Si1[3p_z]->Si1[3s](3.8669746532647453)
No.7:Si1[3p_x]->Si1[3s](3.8669746532647453)
No.7:Si1[3s]->Si1[3p_y](3.8669746532647453)
No.7:Si1[3p_y]->Si1[3p_y](3.8669746532647453)
No.7:Si1[3p_z]->Si1[3p_y](3.8669746532647453)
No.7:Si1[3p_x]->Si1[3p_y](3.8669746532647453)
No.7:Si1[3s]->Si1[3p_z](3.8669746532647453)
No.7:Si1[3p_y]->Si1[3p_z](3.8669746532647453)
No.7:Si1[3p_z]->Si1[3p_z](3.8669746532647453)
No.7:Si1[3p_x]->Si1[3p_z](3.8669746532647453)
No.7:Si1[3s]->Si1[3p_x](3.8669746532647453)
No.7:Si1[3p_y]->Si1[3p_x](3.8669746532647453)
No.7:Si1[3p_z]->Si1[3p_x](3.8669746532647453)
No.7:Si1[3p_x]->Si1[3p_x](3.8669746532647453)
No.8:Si1->Si1(3.8669746532647453)
No.8:Si1[3s]->Si1[3s](3.8669746532647453)
No.8:Si1[3p_y]->Si1[3s](3.8669746532647453)
No.8:Si1[3p_z]->Si1[3s](3.8669746532647453)
No.8:Si1[3p_x]->Si1[3s](3.8669746532647453)
No.8:Si1[3s]->Si1[3p_y](3.8669746532647453)
No.8:Si1[3p_y]->Si1[3p_y](3.8669746532647453)
No.8:Si1[3p_z]->Si1[3p_y](3.8669746532647453)
No.8:Si1[3p_x]->Si1[3p_y](3.8669746532647453)
No.8:Si1[3s]->Si1[3p_z](3.8669746532647453)
No.8:Si1[3p_y]->Si1[3p_z](3.8669746532647453)
No.8:Si1[3p_z]->Si1[3p_z](3.8669746532647453)
No.8:Si1[3p_x]->Si1[3p_z](3.8669746532647453)
No.8:Si1[3s]->Si1[3p_x](3.8669746532647453)
No.8:Si1[3p_y]->Si1[3p_x](3.8669746532647453)
No.8:Si1[3p_z]->Si1[3p_x](3.8669746532647453)
No.8:Si1[3p_x]->Si1[3p_x](3.8669746532647453)
No.9:Si1->Si1(3.8669746532647453)
No.9:Si1[3s]->Si1[3s](3.8669746532647453)
No.9:Si1[3p_y]->Si1[3s](3.8669746532647453)
No.9:Si1[3p_z]->Si1[3s](3.8669746532647453)
No.9:Si1[3p_x]->Si1[3s](3.8669746532647453)
No.9:Si1[3s]->Si1[3p_y](3.8669746532647453)
No.9:Si1[3p_y]->Si1[3p_y](3.8669746532647453)
No.9:Si1[3p_z]->Si1[3p_y](3.8669746532647453)
No.9:Si1[3p_x]->Si1[3p_y](3.8669746532647453)
No.9:Si1[3s]->Si1[3p_z](3.8669746532647453)
No.9:Si1[3p_y]->Si1[3p_z](3.8669746532647453)
No.9:Si1[3p_z]->Si1[3p_z](3.8669746532647453)
No.9:Si1[3p_x]->Si1[3p_z](3.8669746532647453)
No.9:Si1[3s]->Si1[3p_x](3.8669746532647453)
No.9:Si1[3p_y]->Si1[3p_x](3.8669746532647453)
No.9:Si1[3p_z]->Si1[3p_x](3.8669746532647453)
No.9:Si1[3p_x]->Si1[3p_x](3.8669746532647453)
No.10:Si1->Si1(3.8669746532647453)
No.10:Si1[3s]->Si1[3s](3.8669746532647453)
No.10:Si1[3p_y]->Si1[3s](3.8669746532647453)
No.10:Si1[3p_z]->Si1[3s](3.8669746532647453)
No.10:Si1[3p_x]->Si1[3s](3.8669746532647453)
No.10:Si1[3s]->Si1[3p_y](3.8669746532647453)
No.10:Si1[3p_y]->Si1[3p_y](3.8669746532647453)
No.10:Si1[3p_z]->Si1[3p_y](3.8669746532647453)
No.10:Si1[3p_x]->Si1[3p_y](3.8669746532647453)
No.10:Si1[3s]->Si1[3p_z](3.8669746532647453)
No.10:Si1[3p_y]->Si1[3p_z](3.8669746532647453)
No.10:Si1[3p_z]->Si1[3p_z](3.8669746532647453)
No.10:Si1[3p_x]->Si1[3p_z](3.8669746532647453)
No.10:Si1[3s]->Si1[3p_x](3.8669746532647453)
No.10:Si1[3p_y]->Si1[3p_x](3.8669746532647453)
No.10:Si1[3p_z]->Si1[3p_x](3.8669746532647453)
No.10:Si1[3p_x]->Si1[3p_x](3.8669746532647453)
No.11:Si1->Si1(3.8669746532647453)
No.11:Si1[3s]->Si1[3s](3.8669746532647453)
No.11:Si1[3p_y]->Si1[3s](3.8669746532647453)
No.11:Si1[3p_z]->Si1[3s](3.8669746532647453)
No.11:Si1[3p_x]->Si1[3s](3.8669746532647453)
No.11:Si1[3s]->Si1[3p_y](3.8669746532647453)
No.11:Si1[3p_y]->Si1[3p_y](3.8669746532647453)
No.11:Si1[3p_z]->Si1[3p_y](3.8669746532647453)
No.11:Si1[3p_x]->Si1[3p_y](3.8669746532647453)
No.11:Si1[3s]->Si1[3p_z](3.8669746532647453)
No.11:Si1[3p_y]->Si1[3p_z](3.8669746532647453)
No.11:Si1[3p_z]->Si1[3p_z](3.8669746532647453)
No.11:Si1[3p_x]->Si1[3p_z](3.8669746532647453)
No.11:Si1[3s]->Si1[3p_x](3.8669746532647453)
No.11:Si1[3p_y]->Si1[3p_x](3.8669746532647453)
No.11:Si1[3p_z]->Si1[3p_x](3.8669746532647453)
No.11:Si1[3p_x]->Si1[3p_x](3.8669746532647453)
No.12:Si1->Si1(3.8669746532647453)
No.12:Si1[3s]->Si1[3s](3.8669746532647453)
No.12:Si1[3p_y]->Si1[3s](3.8669746532647453)
No.12:Si1[3p_z]->Si1[3s](3.8669746532647453)
No.12:Si1[3p_x]->Si1[3s](3.8669746532647453)
No.12:Si1[3s]->Si1[3p_y](3.8669746532647453)
No.12:Si1[3p_y]->Si1[3p_y](3.8669746532647453)
No.12:Si1[3p_z]->Si1[3p_y](3.8669746532647453)
No.12:Si1[3p_x]->Si1[3p_y](3.8669746532647453)
No.12:Si1[3s]->Si1[3p_z](3.8669746532647453)
No.12:Si1[3p_y]->Si1[3p_z](3.8669746532647453)
No.12:Si1[3p_z]->Si1[3p_z](3.8669746532647453)
No.12:Si1[3p_x]->Si1[3p_z](3.8669746532647453)
No.12:Si1[3s]->Si1[3p_x](3.8669746532647453)
No.12:Si1[3p_y]->Si1[3p_x](3.8669746532647453)
No.12:Si1[3p_z]->Si1[3p_x](3.8669746532647453)
No.12:Si1[3p_x]->Si1[3p_x](3.8669746532647453)
No.13:Si1->Si1(5.4687279999999996)
No.13:Si1[3s]->Si1[3s](5.4687279999999996)
No.13:Si1[3p_y]->Si1[3s](5.4687279999999996)
No.13:Si1[3p_z]->Si1[3s](5.4687279999999996)
No.13:Si1[3p_x]->Si1[3s](5.4687279999999996)
No.13:Si1[3s]->Si1[3p_y](5.4687279999999996)
No.13:Si1[3p_y]->Si1[3p_y](5.4687279999999996)
No.13:Si1[3p_z]->Si1[3p_y](5.4687279999999996)
No.13:Si1[3p_x]->Si1[3p_y](5.4687279999999996)
No.13:Si1[3s]->Si1[3p_z](5.4687279999999996)
No.13:Si1[3p_y]->Si1[3p_z](5.4687279999999996)
No.13:Si1[3p_z]->Si1[3p_z](5.4687279999999996)
No.13:Si1[3p_x]->Si1[3p_z](5.4687279999999996)
No.13:Si1[3s]->Si1[3p_x](5.4687279999999996)
No.13:Si1[3p_y]->Si1[3p_x](5.4687279999999996)
No.13:Si1[3p_z]->Si1[3p_x](5.4687279999999996)
No.13:Si1[3p_x]->Si1[3p_x](5.4687279999999996)
No.14:Si1->Si1(3.8669746532647453)
No.14:Si1[3s]->Si1[3s](3.8669746532647453)
No.14:Si1[3p_y]->Si1[3s](3.8669746532647453)
No.14:Si1[3p_z]->Si1[3s](3.8669746532647453)
No.14:Si1[3p_x]->Si1[3s](3.8669746532647453)
No.14:Si1[3s]->Si1[3p_y](3.8669746532647453)
No.14:Si1[3p_y]->Si1[3p_y](3.8669746532647453)
No.14:Si1[3p_z]->Si1[3p_y](3.8669746532647453)
No.14:Si1[3p_x]->Si1[3p_y](3.8669746532647453)
No.14:Si1[3s]->Si1[3p_z](3.8669746532647453)
No.14:Si1[3p_y]->Si1[3p_z](3.8669746532647453)
No.14:Si1[3p_z]->Si1[3p_z](3.8669746532647453)
No.14:Si1[3p_x]->Si1[3p_z](3.8669746532647453)
No.14:Si1[3s]->Si1[3p_x](3.8669746532647453)
No.14:Si1[3p_y]->Si1[3p_x](3.8669746532647453)
No.14:Si1[3p_z]->Si1[3p_x](3.8669746532647453)
No.14:Si1[3p_x]->Si1[3p_x](3.8669746532647453)
No.15:Si1->Si1(5.4687279999999996)
No.15:Si1[3s]->Si1[3s](5.4687279999999996)
No.15:Si1[3p_y]->Si1[3s](5.4687279999999996)
No.15:Si1[3p_z]->Si1[3s](5.4687279999999996)
No.15:Si1[3p_x]->Si1[3s](5.4687279999999996)
No.15:Si1[3s]->Si1[3p_y](5.4687279999999996)
No.15:Si1[3p_y]->Si1[3p_y](5.4687279999999996)
No.15:Si1[3p_z]->Si1[3p_y](5.4687279999999996)
No.15:Si1[3p_x]->Si1[3p_y](5.4687279999999996)
No.15:Si1[3s]->Si1[3p_z](5.4687279999999996)
No.15:Si1[3p_y]->Si1[3p_z](5.4687279999999996)
No.15:Si1[3p_z]->Si1[3p_z](5.4687279999999996)
No.15:Si1[3p_x]->Si1[3p_z](5.4687279999999996)
No.15:Si1[3s]->Si1[3p_x](5.4687279999999996)
No.15:Si1[3p_y]->Si1[3p_x](5.4687279999999996)
No.15:Si1[3p_z]->Si1[3p_x](5.4687279999999996)
No.15:Si1[3p_x]->Si1[3p_x](5.4687279999999996)
No.16:Si1->Si1(3.8669746532647453)
No.16:Si1[3s]->Si1[3s](3.8669746532647453)
No.16:Si1[3p_y]->Si1[3s](3.8669746532647453)
No.16:Si1[3p_z]->Si1[3s](3.8669746532647453)
No.16:Si1[3p_x]->Si1[3s](3.8669746532647453)
No.16:Si1[3s]->Si1[3p_y](3.8669746532647453)
No.16:Si1[3p_y]->Si1[3p_y](3.8669746532647453)
No.16:Si1[3p_z]->Si1[3p_y](3.8669746532647453)
No.16:Si1[3p_x]->Si1[3p_y](3.8669746532647453)
No.16:Si1[3s]->Si1[3p_z](3.8669746532647453)
No.16:Si1[3p_y]->Si1[3p_z](3.8669746532647453)
No.16:Si1[3p_z]->Si1[3p_z](3.8669746532647453)
No.16:Si1[3p_x]->Si1[3p_z](3.8669746532647453)
No.16:Si1[3s]->Si1[3p_x](3.8669746532647453)
No.16:Si1[3p_y]->Si1[3p_x](3.8669746532647453)
No.16:Si1[3p_z]->Si1[3p_x](3.8669746532647453)
No.16:Si1[3p_x]->Si1[3p_x](3.8669746532647453)
No.17:Si1->Si1(3.8669746532647453)
No.17:Si1[3s]->Si1[3s](3.8669746532647453)
No.17:Si1[3p_y]->Si1[3s](3.8669746532647453)
No.17:Si1[3p_z]->Si1[3s](3.8669746532647453)
No.17:Si1[3p_x]->Si1[3s](3.8669746532647453)
No.17:Si1[3s]->Si1[3p_y](3.8669746532647453)
No.17:Si1[3p_y]->Si1[3p_y](3.8669746532647453)
No.17:Si1[3p_z]->Si1[3p_y](3.8669746532647453)
No.17:Si1[3p_x]->Si1[3p_y](3.8669746532647453)
No.17:Si1[3s]->Si1[3p_z](3.8669746532647453)
No.17:Si1[3p_y]->Si1[3p_z](3.8669746532647453)
No.17:Si1[3p_z]->Si1[3p_z](3.8669746532647453)
No.17:Si1[3p_x]->Si1[3p_z](3.8669746532647453)
No.17:Si1[3s]->Si1[3p_x](3.8669746532647453)
No.17:Si1[3p_y]->Si1[3p_x](3.8669746532647453)
No.17:Si1[3p_z]->Si1[3p_x](3.8669746532647453)
No.17:Si1[3p_x]->Si1[3p_x](3.8669746532647453)
No.18:Si1->Si1(5.4687279999999996)
No.18:Si1[3s]->Si1[3s](5.4687279999999996)
No.18:Si1[3p_y]->Si1[3s](5.4687279999999996)
No.18:Si1[3p_z]->Si1[3s](5.4687279999999996)
No.18:Si1[3p_x]->Si1[3s](5.4687279999999996)
No.18:Si1[3s]->Si1[3p_y](5.4687279999999996)
No.18:Si1[3p_y]->Si1[3p_y](5.4687279999999996)
No.18:Si1[3p_z]->Si1[3p_y](5.4687279999999996)
No.18:Si1[3p_x]->Si1[3p_y](5.4687279999999996)
No.18:Si1[3s]->Si1[3p_z](5.4687279999999996)
No.18:Si1[3p_y]->Si1[3p_z](5.4687279999999996)
No.18:Si1[3p_z]->Si1[3p_z](5.4687279999999996)
No.18:Si1[3p_x]->Si1[3p_z](5.4687279999999996)
No.18:Si1[3s]->Si1[3p_x](5.4687279999999996)
No.18:Si1[3p_y]->Si1[3p_x](5.4687279999999996)
No.18:Si1[3p_z]->Si1[3p_x](5.4687279999999996)
No.18:Si1[3p_x]->Si1[3p_x](5.4687279999999996)
No.19:Si2->Si1(5.959408175427825)
No.19:Si2[3s]->Si1[3s](5.959408175427825)
No.19:Si2[3p_y]->Si1[3s](5.959408175427825)
No.19:Si2[3p_z]->Si1[3s](5.959408175427825)
No.19:Si2[3p_x]->Si1[3s](5.959408175427825)
No.19:Si2[3s]->Si1[3p_y](5.959408175427825)
No.19:Si2[3p_y]->Si1[3p_y](5.959408175427825)
No.19:Si2[3p_z]->Si1[3p_y](5.959408175427825)
No.19:Si2[3p_x]->Si1[3p_y](5.959408175427825)
No.19:Si2[3s]->Si1[3p_z](5.959408175427825)
No.19:Si2[3p_y]->Si1[3p_z](5.959408175427825)
No.19:Si2[3p_z]->Si1[3p_z](5.959408175427825)
No.19:Si2[3p_x]->Si1[3p_z](5.959408175427825)
No.19:Si2[3s]->Si1[3p_x](5.959408175427825)
No.19:Si2[3p_y]->Si1[3p_x](5.959408175427825)
No.19:Si2[3p_z]->Si1[3p_x](5.959408175427825)
No.19:Si2[3p_x]->Si1[3p_x](5.959408175427825)
No.20:Si2->Si1(5.959408175427825)
No.20:Si2[3s]->Si1[3s](5.959408175427825)
No.20:Si2[3p_y]->Si1[3s](5.959408175427825)
No.20:Si2[3p_z]->Si1[3s](5.959408175427825)
No.20:Si2[3p_x]->Si1[3s](5.959408175427825)
No.20:Si2[3s]->Si1[3p_y](5.959408175427825)
No.20:Si2[3p_y]->Si1[3p_y](5.959408175427825)
No.20:Si2[3p_z]->Si1[3p_y](5.959408175427825)
No.20:Si2[3p_x]->Si1[3p_y](5.959408175427825)
No.20:Si2[3s]->Si1[3p_z](5.959408175427825)
No.20:Si2[3p_y]->Si1[3p_z](5.959408175427825)
No.20:Si2[3p_z]->Si1[3p_z](5.959408175427825)
No.20:Si2[3p_x]->Si1[3p_z](5.959408175427825)
No.20:Si2[3s]->Si1[3p_x](5.959408175427825)
No.20:Si2[3p_y]->Si1[3p_x](5.959408175427825)
No.20:Si2[3p_z]->Si1[3p_x](5.959408175427825)
No.20:Si2[3p_x]->Si1[3p_x](5.959408175427825)
No.21:Si2->Si1(5.959408175427825)
No.21:Si2[3s]->Si1[3s](5.959408175427825)
No.21:Si2[3p_y]->Si1[3s](5.959408175427825)
No.21:Si2[3p_z]->Si1[3s](5.959408175427825)
No.21:Si2[3p_x]->Si1[3s](5.959408175427825)
No.21:Si2[3s]->Si1[3p_y](5.959408175427825)
No.21:Si2[3p_y]->Si1[3p_y](5.959408175427825)
No.21:Si2[3p_z]->Si1[3p_y](5.959408175427825)
No.21:Si2[3p_x]->Si1[3p_y](5.959408175427825)
No.21:Si2[3s]->Si1[3p_z](5.959408175427825)
No.21:Si2[3p_y]->Si1[3p_z](5.959408175427825)
No.21:Si2[3p_z]->Si1[3p_z](5.959408175427825)
No.21:Si2[3p_x]->Si1[3p_z](5.959408175427825)
No.21:Si2[3s]->Si1[3p_x](5.959408175427825)
No.21:Si2[3p_y]->Si1[3p_x](5.959408175427825)
No.21:Si2[3p_z]->Si1[3p_x](5.959408175427825)
No.21:Si2[3p_x]->Si1[3p_x](5.959408175427825)
No.22:Si2->Si1(4.5344297141276764)
No.22:Si2[3s]->Si1[3s](4.5344297141276764)
No.22:Si2[3p_y]->Si1[3s](4.5344297141276764)
No.22:Si2[3p_z]->Si1[3s](4.5344297141276764)
No.22:Si2[3p_x]->Si1[3s](4.5344297141276764)
No.22:Si2[3s]->Si1[3p_y](4.5344297141276764)
No.22:Si2[3p_y]->Si1[3p_y](4.5344297141276764)
No.22:Si2[3p_z]->Si1[3p_y](4.5344297141276764)
No.22:Si2[3p_x]->Si1[3p_y](4.5344297141276764)
No.22:Si2[3s]->Si1[3p_z](4.5344297141276764)
No.22:Si2[3p_y]->Si1[3p_z](4.5344297141276764)
No.22:Si2[3p_z]->Si1[3p_z](4.5344297141276764)
No.22:Si2[3p_x]->Si1[3p_z](4.5344297141276764)
No.22:Si2[3s]->Si1[3p_x](4.5344297141276764)
No.22:Si2[3p_y]->Si1[3p_x](4.5344297141276764)
No.22:Si2[3p_z]->Si1[3p_x](4.5344297141276764)
No.22:Si2[3p_x]->Si1[3p_x](4.5344297141276764)
No.23:Si2->Si1(4.5344297141276755)
No.23:Si2[3s]->Si1[3s](4.5344297141276755)
No.23:Si2[3p_y]->Si1[3s](4.5344297141276755)
No.23:Si2[3p_z]->Si1[3s](4.5344297141276755)
No.23:Si2[3p_x]->Si1[3s](4.5344297141276755)
No.23:Si2[3s]->Si1[3p_y](4.5344297141276755)
No.23:Si2[3p_y]->Si1[3p_y](4.5344297141276755)
No.23:Si2[3p_z]->Si1[3p_y](4.5344297141276755)
No.23:Si2[3p_x]->Si1[3p_y](4.5344297141276755)
No.23:Si2[3s]->Si1[3p_z](4.5344297141276755)
No.23:Si2[3p_y]->Si1[3p_z](4.5344297141276755)
No.23:Si2[3p_z]->Si1[3p_z](4.5344297141276755)
No.23:Si2[3p_x]->Si1[3p_z](4.5344297141276755)
No.23:Si2[3s]->Si1[3p_x](4.5344297141276755)
No.23:Si2[3p_y]->Si1[3p_x](4.5344297141276755)
No.23:Si2[3p_z]->Si1[3p_x](4.5344297141276755)
No.23:Si2[3p_x]->Si1[3p_x](4.5344297141276755)
No.24:Si2->Si1(4.5344297141276764)
No.24:Si2[3s]->Si1[3s](4.5344297141276764)
No.24:Si2[3p_y]->Si1[3s](4.5344297141276764)
No.24:Si2[3p_z]->Si1[3s](4.5344297141276764)
No.24:Si2[3p_x]->Si1[3s](4.5344297141276764)
No.24:Si2[3s]->Si1[3p_y](4.5344297141276764)
No.24:Si2[3p_y]->Si1[3p_y](4.5344297141276764)
No.24:Si2[3p_z]->Si1[3p_y](4.5344297141276764)
No.24:Si2[3p_x]->Si1[3p_y](4.5344297141276764)
No.24:Si2[3s]->Si1[3p_z](4.5344297141276764)
No.24:Si2[3p_y]->Si1[3p_z](4.5344297141276764)
No.24:Si2[3p_z]->Si1[3p_z](4.5344297141276764)
No.24:Si2[3p_x]->Si1[3p_z](4.5344297141276764)
No.24:Si2[3s]->Si1[3p_x](4.5344297141276764)
No.24:Si2[3p_y]->Si1[3p_x](4.5344297141276764)
No.24:Si2[3p_z]->Si1[3p_x](4.5344297141276764)
No.24:Si2[3p_x]->Si1[3p_x](4.5344297141276764)
No.25:Si2->Si1(2.3680286871936329)
No.25:Si2[3s]->Si1[3s](2.3680286871936329)
No.25:Si2[3p_y]->Si1[3s](2.3680286871936329)
No.25:Si2[3p_z]->Si1[3s](2.3680286871936329)
No.25:Si2[3p_x]->Si1[3s](2.3680286871936329)
No.25:Si2[3s]->Si1[3p_y](2.3680286871936329)
No.25:Si2[3p_y]->Si1[3p_y](2.3680286871936329)
No.25:Si2[3p_z]->Si1[3p_y](2.3680286871936329)
No.25:Si2[3p_x]->Si1[3p_y](2.3680286871936329)
No.25:Si2[3s]->Si1[3p_z](2.3680286871936329)
No.25:Si2[3p_y]->Si1[3p_z](2.3680286871936329)
No.25:Si2[3p_z]->Si1[3p_z](2.3680286871936329)
No.25:Si2[3p_x]->Si1[3p_z](2.3680286871936329)
No.25:Si2[3s]->Si1[3p_x](2.3680286871936329)
No.25:Si2[3p_y]->Si1[3p_x](2.3680286871936329)
No.25:Si2[3p_z]->Si1[3p_x](2.3680286871936329)
No.25:Si2[3p_x]->Si1[3p_x](2.3680286871936329)
No.26:Si2->Si1(4.5344297141276764)
No.26:Si2[3s]->Si1[3s](4.5344297141276764)
No.26:Si2[3p_y]->Si1[3s](4.5344297141276764)
No.26:Si2[3p_z]->Si1[3s](4.5344297141276764)
No.26:Si2[3p_x]->Si1[3s](4.5344297141276764)
No.26:Si2[3s]->Si1[3p_y](4.5344297141276764)
No.26:Si2[3p_y]->Si1[3p_y](4.5344297141276764)
No.26:Si2[3p_z]->Si1[3p_y](4.5344297141276764)
No.26:Si2[3p_x]->Si1[3p_y](4.5344297141276764)
No.26:Si2[3s]->Si1[3p_z](4.5344297141276764)
No.26:Si2[3p_y]->Si1[3p_z](4.5344297141276764)
No.26:Si2[3p_z]->Si1[3p_z](4.5344297141276764)
No.26:Si2[3p_x]->Si1[3p_z](4.5344297141276764)
No.26:Si2[3s]->Si1[3p_x](4.5344297141276764)
No.26:Si2[3p_y]->Si1[3p_x](4.5344297141276764)
No.26:Si2[3p_z]->Si1[3p_x](4.5344297141276764)
No.26:Si2[3p_x]->Si1[3p_x](4.5344297141276764)
No.27:Si2->Si1(4.5344297141276755)
No.27:Si2[3s]->Si1[3s](4.5344297141276755)
No.27:Si2[3p_y]->Si1[3s](4.5344297141276755)
No.27:Si2[3p_z]->Si1[3s](4.5344297141276755)
No.27:Si2[3p_x]->Si1[3s](4.5344297141276755)
No.27:Si2[3s]->Si1[3p_y](4.5344297141276755)
No.27:Si2[3p_y]->Si1[3p_y](4.5344297141276755)
No.27:Si2[3p_z]->Si1[3p_y](4.5344297141276755)
No.27:Si2[3p_x]->Si1[3p_y](4.5344297141276755)
No.27:Si2[3s]->Si1[3p_z](4.5344297141276755)
No.27:Si2[3p_y]->Si1[3p_z](4.5344297141276755)
No.27:Si2[3p_z]->Si1[3p_z](4.5344297141276755)
No.27:Si2[3p_x]->Si1[3p_z](4.5344297141276755)
No.27:Si2[3s]->Si1[3p_x](4.5344297141276755)
No.27:Si2[3p_y]->Si1[3p_x](4.5344297141276755)
No.27:Si2[3p_z]->Si1[3p_x](4.5344297141276755)
No.27:Si2[3p_x]->Si1[3p_x](4.5344297141276755)
No.28:Si2->Si1(4.5344297141276764)
No.28:Si2[3s]->Si1[3s](4.5344297141276764)
No.28:Si2[3p_y]->Si1[3s](4.5344297141276764)
No.28:Si2[3p_z]->Si1[3s](4.5344297141276764)
No.28:Si2[3p_x]->Si1[3s](4.5344297141276764)
No.28:Si2[3s]->Si1[3p_y](4.5344297141276764)
No.28:Si2[3p_y]->Si1[3p_y](4.5344297141276764)
No.28:Si2[3p_z]->Si1[3p_y](4.5344297141276764)
No.28:Si2[3p_x]->Si1[3p_y](4.5344297141276764)
No.28:Si2[3s]->Si1[3p_z](4.5344297141276764)
No.28:Si2[3p_y]->Si1[3p_z](4.5344297141276764)
No.28:Si2[3p_z]->Si1[3p_z](4.5344297141276764)
No.28:Si2[3p_x]->Si1[3p_z](4.5344297141276764)
No.28:Si2[3s]->Si1[3p_x](4.5344297141276764)
No.28:Si2[3p_y]->Si1[3p_x](4.5344297141276764)
No.28:Si2[3p_z]->Si1[3p_x](4.5344297141276764)
No.28:Si2[3p_x]->Si1[3p_x](4.5344297141276764)
No.29:Si2->Si1(5.959408175427825)
No.29:Si2[3s]->Si1[3s](5.959408175427825)
No.29:Si2[3p_y]->Si1[3s](5.959408175427825)
No.29:Si2[3p_z]->Si1[3s](5.959408175427825)
No.29:Si2[3p_x]->Si1[3s](5.959408175427825)
No.29:Si2[3s]->Si1[3p_y](5.959408175427825)
No.29:Si2[3p_y]->Si1[3p_y](5.959408175427825)
No.29:Si2[3p_z]->Si1[3p_y](5.959408175427825)
No.29:Si2[3p_x]->Si1[3p_y](5.959408175427825)
No.29:Si2[3s]->Si1[3p_z](5.959408175427825)
No.29:Si2[3p_y]->Si1[3p_z](5.959408175427825)
No.29:Si2[3p_z]->Si1[3p_z](5.959408175427825)
No.29:Si2[3p_x]->Si1[3p_z](5.959408175427825)
No.29:Si2[3s]->Si1[3p_x](5.959408175427825)
No.29:Si2[3p_y]->Si1[3p_x](5.959408175427825)
No.29:Si2[3p_z]->Si1[3p_x](5.959408175427825)
No.29:Si2[3p_x]->Si1[3p_x](5.959408175427825)
No.30:Si2->Si1(5.959408175427825)
No.30:Si2[3s]->Si1[3s](5.959408175427825)
No.30:Si2[3p_y]->Si1[3s](5.959408175427825)
No.30:Si2[3p_z]->Si1[3s](5.959408175427825)
No.30:Si2[3p_x]->Si1[3s](5.959408175427825)
No.30:Si2[3s]->Si1[3p_y](5.959408175427825)
No.30:Si2[3p_y]->Si1[3p_y](5.959408175427825)
No.30:Si2[3p_z]->Si1[3p_y](5.959408175427825)
No.30:Si2[3p_x]->Si1[3p_y](5.959408175427825)
No.30:Si2[3s]->Si1[3p_z](5.959408175427825)
No.30:Si2[3p_y]->Si1[3p_z](5.959408175427825)
No.30:Si2[3p_z]->Si1[3p_z](5.959408175427825)
No.30:Si2[3p_x]->Si1[3p_z](5.959408175427825)
No.30:Si2[3s]->Si1[3p_x](5.959408175427825)
No.30:Si2[3p_y]->Si1[3p_x](5.959408175427825)
No.30:Si2[3p_z]->Si1[3p_x](5.959408175427825)
No.30:Si2[3p_x]->Si1[3p_x](5.959408175427825)
No.31:Si2->Si1(4.5344297141276764)
No.31:Si2[3s]->Si1[3s](4.5344297141276764)
No.31:Si2[3p_y]->Si1[3s](4.5344297141276764)
No.31:Si2[3p_z]->Si1[3s](4.5344297141276764)
No.31:Si2[3p_x]->Si1[3s](4.5344297141276764)
No.31:Si2[3s]->Si1[3p_y](4.5344297141276764)
No.31:Si2[3p_y]->Si1[3p_y](4.5344297141276764)
No.31:Si2[3p_z]->Si1[3p_y](4.5344297141276764)
No.31:Si2[3p_x]->Si1[3p_y](4.5344297141276764)
No.31:Si2[3s]->Si1[3p_z](4.5344297141276764)
No.31:Si2[3p_y]->Si1[3p_z](4.5344297141276764)
No.31:Si2[3p_z]->Si1[3p_z](4.5344297141276764)
No.31:Si2[3p_x]->Si1[3p_z](4.5344297141276764)
No.31:Si2[3s]->Si1[3p_x](4.5344297141276764)
No.31:Si2[3p_y]->Si1[3p_x](4.5344297141276764)
No.31:Si2[3p_z]->Si1[3p_x](4.5344297141276764)
No.31:Si2[3p_x]->Si1[3p_x](4.5344297141276764)
No.32:Si2->Si1(2.3680286871936329)
No.32:Si2[3s]->Si1[3s](2.3680286871936329)
No.32:Si2[3p_y]->Si1[3s](2.3680286871936329)
No.32:Si2[3p_z]->Si1[3s](2.3680286871936329)
No.32:Si2[3p_x]->Si1[3s](2.3680286871936329)
No.32:Si2[3s]->Si1[3p_y](2.3680286871936329)
No.32:Si2[3p_y]->Si1[3p_y](2.3680286871936329)
No.32:Si2[3p_z]->Si1[3p_y](2.3680286871936329)
No.32:Si2[3p_x]->Si1[3p_y](2.3680286871936329)
No.32:Si2[3s]->Si1[3p_z](2.3680286871936329)
No.32:Si2[3p_y]->Si1[3p_z](2.3680286871936329)
No.32:Si2[3p_z]->Si1[3p_z](2.3680286871936329)
No.32:Si2[3p_x]->Si1[3p_z](2.3680286871936329)
No.32:Si2[3s]->Si1[3p_x](2.3680286871936329)
No.32:Si2[3p_y]->Si1[3p_x](2.3680286871936329)
No.32:Si2[3p_z]->Si1[3p_x](2.3680286871936329)
No.32:Si2[3p_x]->Si1[3p_x](2.3680286871936329)
No.33:Si2->Si1(4.5344297141276764)
No.33:Si2[3s]->Si1[3s](4.5344297141276764)
No.33:Si2[3p_y]->Si1[3s](4.5344297141276764)
No.33:Si2[3p_z]->Si1[3s](4.5344297141276764)
No.33:Si2[3p_x]->Si1[3s](4.5344297141276764)
No.33:Si2[3s]->Si1[3p_y](4.5344297141276764)
No.33:Si2[3p_y]->Si1[3p_y](4.5344297141276764)
No.33:Si2[3p_z]->Si1[3p_y](4.5344297141276764)
No.33:Si2[3p_x]->Si1[3p_y](4.5344297141276764)
No.33:Si2[3s]->Si1[3p_z](4.5344297141276764)
No.33:Si2[3p_y]->Si1[3p_z](4.5344297141276764)
No.33:Si2[3p_z]->Si1[3p_z](4.5344297141276764)
No.33:Si2[3p_x]->Si1[3p_z](4.5344297141276764)
No.33:Si2[3s]->Si1[3p_x](4.5344297141276764)
No.33:Si2[3p_y]->Si1[3p_x](4.5344297141276764)
No.33:Si2[3p_z]->Si1[3p_x](4.5344297141276764)
No.33:Si2[3p_x]->Si1[3p_x](4.5344297141276764)
No.34:Si2->Si1(5.959408175427825)
No.34:Si2[3s]->Si1[3s](5.959408175427825)
No.34:Si2[3p_y]->Si1[3s](5.959408175427825)
No.34:Si2[3p_z]->Si1[3s](5.959408175427825)
No.34:Si2[3p_x]->Si1[3s](5.959408175427825)
No.34:Si2[3s]->Si1[3p_y](5.959408175427825)
No.34:Si2[3p_y]->Si1[3p_y](5.959408175427825)
No.34:Si2[3p_z]->Si1[3p_y](5.959408175427825)
No.34:Si2[3p_x]->Si1[3p_y](5.959408175427825)
No.34:Si2[3s]->Si1[3p_z](5.959408175427825)
No.34:Si2[3p_y]->Si1[3p_z](5.959408175427825)
No.34:Si2[3p_z]->Si1[3p_z](5.959408175427825)
No.34:Si2[3p_x]->Si1[3p_z](5.959408175427825)
No.34:Si2[3s]->Si1[3p_x](5.959408175427825)
No.34:Si2[3p_y]->Si1[3p_x](5.959408175427825)
No.34:Si2[3p_z]->Si1[3p_x](5.959408175427825)
No.34:Si2[3p_x]->Si1[3p_x](5.959408175427825)
No.35:Si2->Si1(2.3680286871936329)
No.35:Si2[3s]->Si1[3s](2.3680286871936329)
No.35:Si2[3p_y]->Si1[3s](2.3680286871936329)
No.35:Si2[3p_z]->Si1[3s](2.3680286871936329)
No.35:Si2[3p_x]->Si1[3s](2.3680286871936329)
No.35:Si2[3s]->Si1[3p_y](2.3680286871936329)
No.35:Si2[3p_y]->Si1[3p_y](2.3680286871936329)
No.35:Si2[3p_z]->Si1[3p_y](2.3680286871936329)
No.35:Si2[3p_x]->Si1[3p_y](2.3680286871936329)
No.35:Si2[3s]->Si1[3p_z](2.3680286871936329)
No.35:Si2[3p_y]->Si1[3p_z](2.3680286871936329)
No.35:Si2[3p_z]->Si1[3p_z](2.3680286871936329)
No.35:Si2[3p_x]->Si1[3p_z](2.3680286871936329)
No.35:Si2[3s]->Si1[3p_x](2.3680286871936329)
No.35:Si2[3p_y]->Si1[3p_x](2.3680286871936329)
No.35:Si2[3p_z]->Si1[3p_x](2.3680286871936329)
No.35:Si2[3p_x]->Si1[3p_x](2.3680286871936329)
No.36:Si2->Si1(2.3680286871936329)
No.36:Si2[3s]->Si1[3s](2.3680286871936329)
No.36:Si2[3p_y]->Si1[3s](2.3680286871936329)
No.36:Si2[3p_z]->Si1[3s](2.3680286871936329)
No.36:Si2[3p_x]->Si1[3s](2.3680286871936329)
No.36:Si2[3s]->Si1[3p_y](2.3680286871936329)
No.36:Si2[3p_y]->Si1[3p_y](2.3680286871936329)
No.36:Si2[3p_z]->Si1[3p_y](2.3680286871936329)
No.36:Si2[3p_x]->Si1[3p_y](2.3680286871936329)
No.36:Si2[3s]->Si1[3p_z](2.3680286871936329)
No.36:Si2[3p_y]->Si1[3p_z](2.3680286871936329)
No.36:Si2[3p_z]->Si1[3p_z](2.3680286871936329)
No.36:Si2[3p_x]->Si1[3p_z](2.3680286871936329)
No.36:Si2[3s]->Si1[3p_x](2.3680286871936329)
No.36:Si2[3p_y]->Si1[3p_x](2.3680286871936329)
No.36:Si2[3p_z]->Si1[3p_x](2.3680286871936329)
No.36:Si2[3p_x]->Si1[3p_x](2.3680286871936329)
No.37:Si2->Si1(5.959408175427825)
No.37:Si2[3s]->Si1[3s](5.959408175427825)
No.37:Si2[3p_y]->Si1[3s](5.959408175427825)
No.37:Si2[3p_z]->Si1[3s](5.959408175427825)
No.37:Si2[3p_x]->Si1[3s](5.959408175427825)
No.37:Si2[3s]->Si1[3p_y](5.959408175427825)
No.37:Si2[3p_y]->Si1[3p_y](5.959408175427825)
No.37:Si2[3p_z]->Si1[3p_y](5.959408175427825)
No.37:Si2[3p_x]->Si1[3p_y](5.959408175427825)
No.37:Si2[3s]->Si1[3p_z](5.959408175427825)
No.37:Si2[3p_y]->Si1[3p_z](5.959408175427825)
No.37:Si2[3p_z]->Si1[3p_z](5.959408175427825)
No.37:Si2[3p_x]->Si1[3p_z](5.959408175427825)
No.37:Si2[3s]->Si1[3p_x](5.959408175427825)
No.37:Si2[3p_y]->Si1[3p_x](5.959408175427825)
No.37:Si2[3p_z]->Si1[3p_x](5.959408175427825)
No.37:Si2[3p_x]->Si1[3p_x](5.959408175427825)
No.38:Si2->Si1(5.959408175427825)
No.38:Si2[3s]->Si1[3s](5.959408175427825)
No.38:Si2[3p_y]->Si1[3s](5.959408175427825)
No.38:Si2[3p_z]->Si1[3s](5.959408175427825)
No.38:Si2[3p_x]->Si1[3s](5.959408175427825)
No.38:Si2[3s]->Si1[3p_y](5.959408175427825)
No.38:Si2[3p_y]->Si1[3p_y](5.959408175427825)
No.38:Si2[3p_z]->Si1[3p_y](5.959408175427825)
No.38:Si2[3p_x]->Si1[3p_y](5.959408175427825)
No.38:Si2[3s]->Si1[3p_z](5.959408175427825)
No.38:Si2[3p_y]->Si1[3p_z](5.959408175427825)
No.38:Si2[3p_z]->Si1[3p_z](5.959408175427825)
No.38:Si2[3p_x]->Si1[3p_z](5.959408175427825)
No.38:Si2[3s]->Si1[3p_x](5.959408175427825)
No.38:Si2[3p_y]->Si1[3p_x](5.959408175427825)
No.38:Si2[3p_z]->Si1[3p_x](5.959408175427825)
No.38:Si2[3p_x]->Si1[3p_x](5.959408175427825)
No.39:Si2->Si1(4.5344297141276764)
No.39:Si2[3s]->Si1[3s](4.5344297141276764)
No.39:Si2[3p_y]->Si1[3s](4.5344297141276764)
No.39:Si2[3p_z]->Si1[3s](4.5344297141276764)
No.39:Si2[3p_x]->Si1[3s](4.5344297141276764)
No.39:Si2[3s]->Si1[3p_y](4.5344297141276764)
No.39:Si2[3p_y]->Si1[3p_y](4.5344297141276764)
No.39:Si2[3p_z]->Si1[3p_y](4.5344297141276764)
No.39:Si2[3p_x]->Si1[3p_y](4.5344297141276764)
No.39:Si2[3s]->Si1[3p_z](4.5344297141276764)
No.39:Si2[3p_y]->Si1[3p_z](4.5344297141276764)
No.39:Si2[3p_z]->Si1[3p_z](4.5344297141276764)
No.39:Si2[3p_x]->Si1[3p_z](4.5344297141276764)
No.39:Si2[3s]->Si1[3p_x](4.5344297141276764)
No.39:Si2[3p_y]->Si1[3p_x](4.5344297141276764)
No.39:Si2[3p_z]->Si1[3p_x](4.5344297141276764)
No.39:Si2[3p_x]->Si1[3p_x](4.5344297141276764)
No.40:Si2->Si1(5.959408175427825)