   2    2    1    2
  4.0888293e+01   3.8669747e-10   3.8669747e-10   3.8669747e-10   5.0000000e-16
            1.000000e-04
  CAR
 DOS and projected DOS file by LOBSTER. Energy is shifted such that the Fermi level lies at 0 eV. 
     21.97794722     -10.79827500    11       5.58983611       1.00000000
-16.38811   0.00000   0.00000   0.00000   0.00000
-13.11049   0.00000   0.00000   0.00000   0.00000
 -9.83287   0.10823   0.10823   0.35475   0.35475
 -6.55524   0.29334   0.29334   1.31620   1.31620
 -3.27762   0.31321   0.31321   2.34279   2.34279
  0.00000   0.50524   0.50524   3.99878   3.99878
  3.27762   0.37143   0.37143   5.21618   5.21618
  6.55524   0.65458   0.65458   7.36165   7.36165
  9.83287   0.19401   0.19401   7.99755   7.99755
 13.11049   0.00000   0.00000   7.99755   7.99755
 16.38811   0.00000   0.00000   7.99755   7.99755
     16.38811111     -16.38811111    11       5.58983611       1.00000000; Z= 14; 3s 3p_y 3p_z 3p_x 
-16.38811   0.00000   0.00000   0.00000   0.00000   0.00000   0.00000   0.00000   0.00000
-13.11049   0.00000   0.00000   0.00000   0.00000   0.00000   0.00000   0.00000   0.00000
 -9.83287   0.04052   0.04052   0.00453   0.00453   0.00453   0.00453   0.00453   0.00453
 -6.55524   0.08667   0.08667   0.02000   0.02000   0.02000   0.02000   0.02000   0.02000
 -3.27762   0.03839   0.03839   0.03940   0.03940   0.03940   0.03940   0.03940   0.03940
  0.00000   0.01012   0.01012   0.08083   0.08083   0.08083   0.08083   0.08083   0.08083
  3.27762   0.05618   0.05618   0.04316   0.04320   0.04319   0.04317   0.04318   0.04317
  6.55524   0.05864   0.05864   0.08957   0.08953   0.08954   0.08956   0.08955   0.08956
  9.83287   0.01450   0.01450   0.02750   0.02750   0.02750   0.02750   0.02750   0.02750
 13.11049   0.00000   0.00000   0.00000   0.00000   0.00000   0.00000   0.00000   0.00000
 16.38811   0.00000   0.00000   0.00000   0.00000   0.00000   0.00000   0.00000   0.00000
     16.38811111     -16.38811111    11       5.58983611       1.00000000; Z= 14; 3s 3p_y 3p_z 3p_x 
-16.38811   0.00000   0.00000   0.00000   0.00000   0.00000   0.00000   0.00000   0.00000
-13.11049   0.00000   0.00000   0.00000   0.00000   0.00000   0.00000   0.00000   0.00000
 -9.83287   0.04052   0.04052   0.00453   0.00453   0.00453   0.00453   0.00453   0.00453
 -6.55524   0.08667   0.08667   0.02000   0.02000   0.02000   0.02000   0.02000   0.02000
 -3.27762   0.03839   0.03839   0.03940   0.03940   0.03940   0.03940   0.03940   0.03940
  0.00000   0.01012   0.01012   0.08083   0.08083   0.08083   0.08083   0.08083   0.08083
  3.27762   0.05618   0.05618   0.04316   0.04320   0.04319   0.04317   0.04318   0.04317
  6.55524   0.05864   0.05864   0.08957   0.08953   0.08954   0.08956   0.08955   0.08956
  9.83287   0.01450   0.01450   0.02750   0.02750   0.02750   0.02750   0.02750   0.02750
 13.11049   0.00000   0.00000   0.00000   0.00000   0.00000   0.00000   0.00000   0.00000
 16.38811   0.00000   0.00000   0.00000   0.00000   0.00000   0.00000   0.00000   0.00000
