   2    2    1    2
  4.0888293e+01   3.8669747e-10   3.8669747e-10   3.8669747e-10   5.0000000e-16
            1.000000e-04
  CAR
 DOS and projected DOS file by LOBSTER. Energy is shifted such that the Fermi level lies at 0 eV. 
     21.97794722     -10.79827500    11       5.58983611       1.00000000
-16.38811   0.00000   0.00000   0.00000   0.00000
-13.11049   0.00000   0.00000   0.00000   0.00000
 -9.83287   0.10823   0.10823   0.35475   0.35475
 -6.55524   0.29334   0.29334   1.31620   1.31620
 -3.27762   0.31321   0.31321   2.34279   2.34279
  0.00000   0.50524   0.50524   3.99878   3.99878
  3.27762   0.37143   0.37143   5.21618   5.21618
  6.55524   0.65458   0.65458   7.36165   7.36165
  9.83287   0.19401   0.19401   7.99755   7.99755
 13.11049   0.00000   0.00000   7.99755   7.99755
 16.38811   0.00000   0.00000   7.99755   7.99755
     16.38811111     -16.38811111    11       5.58983611       1.00000000; Z= 14; 3s 3p_y 3p_z 3p_x 
-16.38811   0.00000   0.00000   0.00000   0.00000   0.00000   0.00000   0.00000   0.00000
-13.11049   0.00000   0.00000   0.00000   0.00000   0.00000   0.00000   0.00000   0.00000
 -9.83287   0.04806   0.04806   0.00202   0.00202   0.00202   0.00202   0.00202   0.00202
 -6.55524   0.10247   0.10247   0.01473   0.01473   0.01473   0.01473   0.01473   0.01473
 -3.27762   0.04385   0.04385   0.03759   0.03759   0.03759   0.03759   0.03759   0.03759
  0.00000   0.00893   0.00893   0.08123   0.08123   0.08123   0.08123   0.08123   0.08123
  3.27762   0.04225   0.04225   0.04781   0.04784   0.04783   0.04782   0.04783   0.04781
  6.55524   0.04805   0.04805   0.09309   0.09306   0.09307   0.09309   0.09307   0.09309
  9.83287   0.01140   0.01140   0.02854   0.02854   0.02854   0.02854   0.02854   0.02854
 13.11049   0.00000   0.00000   0.00000   0.00000   0.00000   0.00000   0.00000   0.00000
 16.38811   0.00000   0.00000   0.00000   0.00000   0.00000   0.00000   0.00000   0.00000
     16.38811111     -16.38811111    11       5.58983611       1.00000000; Z= 14; 3s 3p_y 3p_z 3p_x 
-16.38811   0.00000   0.00000   0.00000   0.00000   0.00000   0.00000   0.00000   0.00000
-13.11049   0.00000   0.00000   0.00000   0.00000   0.00000   0.00000   0.00000   0.00000
 -9.83287   0.04806   0.04806   0.00202   0.00202   0.00202   0.00202   0.00202   0.00202
 -6.55524   0.10247   0.10247   0.01473   0.01473   0.01473   0.01473   0.01473   0.01473
 -3.27762   0.04385   0.04385   0.03759   0.03759   0.03759   0.03759   0.03759   0.03759
  0.00000   0.00893   0.00893   0.08123   0.08123   0.08123   0.08123   0.08123   0.08123
  3.27762   0.04225   0.04225   0.04781   0.04784   0.04783   0.04782   0.04783   0.04781
  6.55524   0.04805   0.04805   0.09309   0.09306   0.09307   0.09309   0.09307   0.09309
  9.83287   0.01140   0.01140   0.02854   0.02854   0.02854   0.02854   0.02854   0.02854
 13.11049   0.00000   0.00000   0.00000   0.00000   0.00000   0.00000   0.00000   0.00000
 16.38811   0.00000   0.00000   0.00000   0.00000   0.00000   0.00000   0.00000   0.00000
