    2    2    1    2
  0.2044415E+02  0.3866975E-09  0.3866975E-09  0.3866975E-09  0.5000000E-15
  1.000000000000000E-004
  CAR 
 unknown system                          
      8   5488     12
 
  0.3571429E-01  0.3571429E-01  0.3571429E-01  0.1822157E-03
    1       -6.182728     -6.182727   1.000000   1.000000
    2        5.422451      5.422452   1.000000   1.000000
    3        5.587637      5.587638   1.000000   1.000000
    4        5.587637      5.587638   1.000000   1.000000
    5        8.209000      8.209000   0.000000   0.000000
    6        8.213870      8.213871   0.000000   0.000000
    7        8.213870      8.213871   0.000000   0.000000
    8        8.877794      8.877795   0.000000   0.000000
    9       13.267640     13.267640   0.000000   0.000000
   10       13.267640     13.267640   0.000000   0.000000
   11       13.566509     13.566509   0.000000   0.000000
   12       16.729774     16.729775   0.000000   0.000000
 
  0.3571429E-01  0.0000000E+00  0.0000000E+00  0.1822157E-03
    1       -6.182728     -6.182727   1.000000   1.000000
    2        5.422451      5.422452   1.000000   1.000000
    3        5.587637      5.587638   1.000000   1.000000
    4        5.587637      5.587638   1.000000   1.000000
    5        8.208999      8.209000   0.000000   0.000000
    6        8.213870      8.213870   0.000000   0.000000
    7        8.213870      8.213871   0.000000   0.000000
    8        8.877794      8.877795   0.000000   0.000000
    9       13.267639     13.267640   0.000000   0.000000
   10       13.267640     13.267640   0.000000   0.000000
   11       13.566509     13.566509   0.000000   0.000000
   12       16.729774     16.729774   0.000000   0.000000
 
  0.0000000E+00  0.0000000E+00 -0.3571429E-01  0.1822157E-03
    1       -6.182728     -6.182727   1.000000   1.000000
    2        5.422451      5.422452   1.000000   1.000000
    3        5.587637      5.587638   1.000000   1.000000
    4        5.587637      5.587638   1.000000   1.000000
    5        8.209000      8.209000   0.000000   0.000000
    6        8.213870      8.213871   0.000000   0.000000
    7        8.213870      8.213871   0.000000   0.000000
    8        8.877794      8.877795   0.000000   0.000000
    9       13.267639     13.267640   0.000000   0.000000
   10       13.267640     13.267640   0.000000   0.000000
   11       13.566509     13.566509   0.000000   0.000000
   12       16.729774     16.729774   0.000000   0.000000
 
  0.0000000E+00  0.3571429E-01  0.0000000E+00  0.1822157E-03
    1       -6.182728     -6.182727   1.000000   1.000000
    2        5.422451      5.422453   1.000000   1.000000
    3        5.587637      5.587638   1.000000   1.000000
    4        5.587637      5.587638   1.000000   1.000000
    5        8.208999      8.209000   0.000000   0.000000
    6        8.213870      8.213871   0.000000   0.000000
    7        8.213870      8.213871   0.000000   0.000000
    8        8.877794      8.877795   0.000000   0.000000
    9       13.267640     13.267640   0.000000   0.000000
   10       13.267640     13.267640   0.000000   0.000000
   11       13.566509     13.566509   0.000000   0.000000
   12       16.729774     16.729775   0.000000   0.000000
 
  0.1071429E+00  0.3571429E-01  0.3571429E-01  0.1822157E-03
    1       -6.095206     -6.095205   1.000000   1.000000
    2        4.714350      4.714351   1.000000   1.000000
    3        5.273357      5.273358   1.000000   1.000000
    4        5.549238      5.549239   1.000000   1.000000
    5        8.266986      8.266987   0.000000   0.000000
    6        8.300412      8.300413   0.000000   0.000000
    7        8.452980      8.452981   0.000000   0.000000
    8        9.539286      9.539288   0.000000   0.000000
    9       12.868858     12.868858   0.000000   0.000000
   10       13.187497     13.187497   0.000000   0.000000
   11       13.932266     13.932265   0.000000   0.000000
   12       16.572542     16.572542   0.000000   0.000000
 
  0.3571429E-01  0.1071429E+00  0.3571429E-01  0.1822157E-03
    1       -6.095206     -6.095205   1.000000   1.000000
    2        4.714350      4.714351   1.000000   1.000000
    3        5.273357      5.273358   1.000000   1.000000
    4        5.549238      5.549239   1.000000   1.000000
    5        8.266986      8.266987   0.000000   0.000000
    6        8.300412      8.300413   0.000000   0.000000
    7        8.452980      8.452981   0.000000   0.000000
    8        9.539286      9.539288   0.000000   0.000000
    9       12.868858     12.868858   0.000000   0.000000
   10       13.187497     13.187497   0.000000   0.000000
   11       13.932266     13.932265   0.000000   0.000000
   12       16.572541     16.572542   0.000000   0.000000
 
  0.3571429E-01  0.3571429E-01  0.1071429E+00  0.1822157E-03
    1       -6.095206     -6.095205   1.000000   1.000000
    2        4.714350      4.714351   1.000000   1.000000
    3        5.273357      5.273358   1.000000   1.000000
    4        5.549238      5.549239   1.000000   1.000000
    5        8.266986      8.266987   0.000000   0.000000
    6        8.300412      8.300413   0.000000   0.000000
    7        8.452980      8.452981   0.000000   0.000000
    8        9.539287      9.539288   0.000000   0.000000
    9       12.868858     12.868858   0.000000   0.000000
   10       13.187497     13.187497   0.000000   0.000000
   11       13.932266     13.932265   0.000000   0.000000
   12       16.572542     16.572542   0.000000   0.000000
 
  0.3571429E-01  0.0000000E+00 -0.7142857E-01  0.1822157E-03
    1       -6.095206     -6.095205   1.000000   1.000000
    2        4.714350      4.714351   1.000000   1.000000
    3        5.273357      5.273358   1.000000   1.000000
    4        5.549238      5.549240   1.000000   1.000000
    5        8.266986      8.266987   0.000000   0.000000
    6        8.300412      8.300413   0.000000   0.000000
    7        8.452980      8.452981   0.000000   0.000000
    8        9.539287      9.539288   0.000000   0.000000
    9       12.868858     12.868858   0.000000   0.000000
   10       13.187497     13.187497   0.000000   0.000000
   11       13.932266     13.932265   0.000000   0.000000
   12       16.572542     16.572542   0.000000   0.000000
 
  0.1071429E+00  0.7142857E-01  0.7142857E-01  0.1822157E-03
    1       -6.095206     -6.095205   1.000000   1.000000
    2        4.714350      4.714351   1.000000   1.000000
    3        5.273357      5.273358   1.000000   1.000000
    4        5.549238      5.549239   1.000000   1.000000
    5        8.266986      8.266987   0.000000   0.000000
    6        8.300412      8.300413   0.000000   0.000000
    7        8.452980      8.452981   0.000000   0.000000
    8        9.539286      9.539288   0.000000   0.000000
    9       12.868858     12.868858   0.000000   0.000000
   10       13.187497     13.187497   0.000000   0.000000
   11       13.932266     13.932265   0.000000   0.000000
   12       16.572541     16.572542   0.000000   0.000000
 
  0.3571429E-01 -0.7142857E-01  0.0000000E+00  0.1822157E-03
    1       -6.095206     -6.095205   1.000000   1.000000
    2        4.714350      4.714351   1.000000   1.000000
    3        5.273357      5.273358   1.000000   1.000000
    4        5.549238      5.549239   1.000000   1.000000
    5        8.266986      8.266987   0.000000   0.000000
    6        8.300412      8.300413   0.000000   0.000000
    7        8.452980      8.452981   0.000000   0.000000
    8        9.539286      9.539288   0.000000   0.000000
    9       12.868858     12.868858   0.000000   0.000000
   10       13.187497     13.187497   0.000000   0.000000
   11       13.932266     13.932265   0.000000   0.000000
   12       16.572541     16.572542   0.000000   0.000000
 
  0.0000000E+00  0.7142857E-01 -0.3571429E-01  0.1822157E-03
    1       -6.095206     -6.095205   1.000000   1.000000
    2        4.714350      4.714351   1.000000   1.000000
    3        5.273357      5.273358   1.000000   1.000000
    4        5.549238      5.549239   1.000000   1.000000
    5        8.266986      8.266987   0.000000   0.000000
    6        8.300412      8.300413   0.000000   0.000000
    7        8.452980      8.452981   0.000000   0.000000
    8        9.539286      9.539288   0.000000   0.000000
    9       12.868858     12.868858   0.000000   0.000000
   10       13.187497     13.187497   0.000000   0.000000
   11       13.932266     13.932265   0.000000   0.000000
   12       16.572541     16.572542   0.000000   0.000000
 
  0.7142857E-01  0.0000000E+00 -0.3571429E-01  0.1822157E-03
    1       -6.095206     -6.095205   1.000000   1.000000
    2        4.714350      4.714351   1.000000   1.000000
    3        5.273357      5.273358   1.000000   1.000000
    4        5.549238      5.549240   1.000000   1.000000
    5        8.266986      8.266987   0.000000   0.000000
    6        8.300412      8.300413   0.000000   0.000000
    7        8.452980      8.452981   0.000000   0.000000
    8        9.539287      9.539288   0.000000   0.000000
    9       12.868858     12.868858   0.000000   0.000000
   10       13.187497     13.187497   0.000000   0.000000
   11       13.932266     13.932265   0.000000   0.000000
   12       16.572542     16.572542   0.000000   0.000000
 
 -0.7142857E-01 -0.7142857E-01 -0.1071429E+00  0.1822157E-03
    1       -6.095206     -6.095205   1.000000   1.000000
    2        4.714350      4.714351   1.000000   1.000000
    3        5.273357      5.273358   1.000000   1.000000
    4        5.549238      5.549239   1.000000   1.000000
    5        8.266986      8.266987   0.000000   0.000000
    6        8.300412      8.300413   0.000000   0.000000
    7        8.452980      8.452981   0.000000   0.000000
    8        9.539286      9.539288   0.000000   0.000000
    9       12.868858     12.868858   0.000000   0.000000
   10       13.187497     13.187497   0.000000   0.000000
   11       13.932266     13.932265   0.000000   0.000000
   12       16.572541     16.572542   0.000000   0.000000
 
  0.7142857E-01  0.1071429E+00  0.7142857E-01  0.1822157E-03
    1       -6.095206     -6.095205   1.000000   1.000000
    2        4.714350      4.714351   1.000000   1.000000
    3        5.273357      5.273358   1.000000   1.000000
    4        5.549238      5.549239   1.000000   1.000000
    5        8.266986      8.266987   0.000000   0.000000
    6        8.300412      8.300413   0.000000   0.000000
    7        8.452980      8.452981   0.000000   0.000000
    8        9.539286      9.539288   0.000000   0.000000
    9       12.868858     12.868858   0.000000   0.000000
   10       13.187497     13.187497   0.000000   0.000000
   11       13.932266     13.932265   0.000000   0.000000
   12       16.572541     16.572542   0.000000   0.000000
 
  0.0000000E+00  0.3571429E-01 -0.7142857E-01  0.1822157E-03
    1       -6.095206     -6.095205   1.000000   1.000000
    2        4.714350      4.714351   1.000000   1.000000
    3        5.273357      5.273358   1.000000   1.000000
    4        5.549238      5.549239   1.000000   1.000000
    5        8.266986      8.266987   0.000000   0.000000
    6        8.300412      8.300413   0.000000   0.000000
    7        8.452980      8.452981   0.000000   0.000000
    8        9.539287      9.539288   0.000000   0.000000
    9       12.868858     12.868858   0.000000   0.000000
   10       13.187497     13.187497   0.000000   0.000000
   11       13.932266     13.932265   0.000000   0.000000
   12       16.572542     16.572542   0.000000   0.000000
 
 -0.7142857E-01  0.3571429E-01  0.0000000E+00  0.1822157E-03
    1       -6.095206     -6.095205   1.000000   1.000000
    2        4.714350      4.714351   1.000000   1.000000
    3        5.273357      5.273358   1.000000   1.000000
    4        5.549238      5.549239   1.000000   1.000000
    5        8.266986      8.266987   0.000000   0.000000
    6        8.300412      8.300413   0.000000   0.000000
    7        8.452980      8.452981   0.000000   0.000000
    8        9.539286      9.539288   0.000000   0.000000
    9       12.868858     12.868858   0.000000   0.000000
   10       13.187497     13.187497   0.000000   0.000000
   11       13.932266     13.932265   0.000000   0.000000
   12       16.572542     16.572542   0.000000   0.000000
 
  0.1785714E+00  0.3571429E-01  0.3571429E-01  0.1822157E-03
    1       -5.878375     -5.878374   1.000000   1.000000
    2        3.462570      3.462571   1.000000   1.000000
    3        4.967163      4.967165   1.000000   1.000000
    4        5.340677      5.340679   1.000000   1.000000
    5        8.054209      8.054211   0.000000   0.000000
    6        8.615512      8.615512   0.000000   0.000000
    7        8.870735      8.870736   0.000000   0.000000
    8       10.699531     10.699532   0.000000   0.000000
    9       12.478759     12.478759   0.000000   0.000000
   10       12.981290     12.981291   0.000000   0.000000
   11       14.604505     14.604505   0.000000   0.000000
   12       16.254910     16.254910   0.000000   0.000000
 
  0.3571429E-01  0.1785714E+00  0.3571429E-01  0.1822157E-03
    1       -5.878375     -5.878374   1.000000   1.000000
    2        3.462570      3.462571   1.000000   1.000000
    3        4.967163      4.967165   1.000000   1.000000
    4        5.340677      5.340679   1.000000   1.000000
    5        8.054210      8.054210   0.000000   0.000000
    6        8.615512      8.615512   0.000000   0.000000
    7        8.870735      8.870736   0.000000   0.000000
    8       10.699531     10.699532   0.000000   0.000000
    9       12.478759     12.478759   0.000000   0.000000
   10       12.981290     12.981291   0.000000   0.000000
   11       14.604505     14.604505   0.000000   0.000000
   12       16.254910     16.254910   0.000000   0.000000
 
  0.3571429E-01  0.3571429E-01  0.1785714E+00  0.1822157E-03
    1       -5.878375     -5.878374   1.000000   1.000000
    2        3.462570      3.462571   1.000000   1.000000
    3        4.967163      4.967165   1.000000   1.000000
    4        5.340677      5.340679   1.000000   1.000000
    5        8.054210      8.054210   0.000000   0.000000
    6        8.615511      8.615512   0.000000   0.000000
    7        8.870735      8.870736   0.000000   0.000000
    8       10.699531     10.699532   0.000000   0.000000
    9       12.478759     12.478759   0.000000   0.000000
   10       12.981290     12.981291   0.000000   0.000000
   11       14.604506     14.604505   0.000000   0.000000
   12       16.254910     16.254910   0.000000   0.000000
 
  0.3571429E-01  0.0000000E+00 -0.1428571E+00  0.1822157E-03
    1       -5.878375     -5.878374   1.000000   1.000000
    2        3.462570      3.462571   1.000000   1.000000
    3        4.967163      4.967165   1.000000   1.000000
    4        5.340677      5.340679   1.000000   1.000000
    5        8.054210      8.054210   0.000000   0.000000
    6        8.615511      8.615512   0.000000   0.000000
    7        8.870735      8.870736   0.000000   0.000000
    8       10.699531     10.699532   0.000000   0.000000
    9       12.478758     12.478759   0.000000   0.000000
   10       12.981290     12.981290   0.000000   0.000000
   11       14.604505     14.604505   0.000000   0.000000
   12       16.254910     16.254910   0.000000   0.000000
 
  0.1785714E+00  0.1428571E+00  0.1428571E+00  0.1822157E-03
    1       -5.878375     -5.878374   1.000000   1.000000
    2        3.462570      3.462571   1.000000   1.000000
    3        4.967163      4.967165   1.000000   1.000000
    4        5.340677      5.340679   1.000000   1.000000
    5        8.054210      8.054210   0.000000   0.000000
    6        8.615512      8.615512   0.000000   0.000000
    7        8.870735      8.870736   0.000000   0.000000
    8       10.699531     10.699532   0.000000   0.000000
    9       12.478759     12.478759   0.000000   0.000000
   10       12.981290     12.981290   0.000000   0.000000
   11       14.604506     14.604505   0.000000   0.000000
   12       16.254910     16.254910   0.000000   0.000000
 
  0.3571429E-01 -0.1428571E+00  0.0000000E+00  0.1822157E-03
    1       -5.878375     -5.878374   1.000000   1.000000
    2        3.462570      3.462571   1.000000   1.000000
    3        4.967163      4.967165   1.000000   1.000000
    4        5.340677      5.340679   1.000000   1.000000
    5        8.054210      8.054210   0.000000   0.000000
    6        8.615512      8.615512   0.000000   0.000000
    7        8.870735      8.870736   0.000000   0.000000
    8       10.699531     10.699532   0.000000   0.000000
    9       12.478759     12.478759   0.000000   0.000000
   10       12.981290     12.981291   0.000000   0.000000
   11       14.604505     14.604505   0.000000   0.000000
   12       16.254910     16.254910   0.000000   0.000000
 
  0.0000000E+00  0.1428571E+00 -0.3571429E-01  0.1822157E-03
    1       -5.878375     -5.878374   1.000000   1.000000
    2        3.462570      3.462571   1.000000   1.000000
    3        4.967163      4.967165   1.000000   1.000000
    4        5.340677      5.340679   1.000000   1.000000
    5        8.054210      8.054210   0.000000   0.000000
    6        8.615511      8.615512   0.000000   0.000000
    7        8.870735      8.870736   0.000000   0.000000
    8       10.699531     10.699532   0.000000   0.000000
    9       12.478759     12.478759   0.000000   0.000000
   10       12.981290     12.981291   0.000000   0.000000
   11       14.604505     14.604505   0.000000   0.000000
   12       16.254910     16.254910   0.000000   0.000000
 
  0.1428571E+00  0.0000000E+00 -0.3571429E-01  0.1822157E-03
    1       -5.878375     -5.878374   1.000000   1.000000
    2        3.462570      3.462571   1.000000   1.000000
    3        4.967164      4.967165   1.000000   1.000000
    4        5.340677      5.340679   1.000000   1.000000
    5        8.054209      8.054211   0.000000   0.000000
    6        8.615511      8.615512   0.000000   0.000000
    7        8.870735      8.870736   0.000000   0.000000
    8       10.699531     10.699532   0.000000   0.000000
    9       12.478758     12.478759   0.000000   0.000000
   10       12.981290     12.981291   0.000000   0.000000
   11       14.604505     14.604505   0.000000   0.000000
   12       16.254910     16.254910   0.000000   0.000000
 
 -0.1428571E+00 -0.1428571E+00 -0.1785714E+00  0.1822157E-03
    1       -5.878375     -5.878374   1.000000   1.000000
    2        3.462570      3.462571   1.000000   1.000000
    3        4.967163      4.967165   1.000000   1.000000
    4        5.340677      5.340679   1.000000   1.000000
    5        8.054210      8.054210   0.000000   0.000000
    6        8.615511      8.615512   0.000000   0.000000
    7        8.870735      8.870736   0.000000   0.000000
    8       10.699531     10.699532   0.000000   0.000000
    9       12.478759     12.478759   0.000000   0.000000
   10       12.981290     12.981291   0.000000   0.000000
   11       14.604506     14.604505   0.000000   0.000000
   12       16.254910     16.254910   0.000000   0.000000
 
  0.1428571E+00  0.1785714E+00  0.1428571E+00  0.1822157E-03
    1       -5.878375     -5.878374   1.000000   1.000000
    2        3.462570      3.462571   1.000000   1.000000
    3        4.967163      4.967165   1.000000   1.000000
    4        5.340677      5.340679   1.000000   1.000000
    5        8.054210      8.054210   0.000000   0.000000
    6        8.615511      8.615512   0.000000   0.000000
    7        8.870735      8.870736   0.000000   0.000000
    8       10.699531     10.699532   0.000000   0.000000
    9       12.478759     12.478759   0.000000   0.000000
   10       12.981290     12.981291   0.000000   0.000000
   11       14.604506     14.604505   0.000000   0.000000
   12       16.254910     16.254910   0.000000   0.000000
 
  0.0000000E+00  0.3571429E-01 -0.1428571E+00  0.1822157E-03
    1       -5.878375     -5.878374   1.000000   1.000000
    2        3.462570      3.462571   1.000000   1.000000
    3        4.967163      4.967165   1.000000   1.000000
    4        5.340677      5.340679   1.000000   1.000000
    5        8.054209      8.054210   0.000000   0.000000
    6        8.615511      8.615512   0.000000   0.000000
    7        8.870735      8.870736   0.000000   0.000000
    8       10.699531     10.699532   0.000000   0.000000
    9       12.478759     12.478759   0.000000   0.000000
   10       12.981290     12.981291   0.000000   0.000000
   11       14.604505     14.604505   0.000000   0.000000
   12       16.254910     16.254910   0.000000   0.000000
 
 -0.1428571E+00  0.3571429E-01  0.0000000E+00  0.1822157E-03
    1       -5.878375     -5.878374   1.000000   1.000000
    2        3.462570      3.462571   1.000000   1.000000
    3        4.967163      4.967165   1.000000   1.000000
    4        5.340677      5.340679   1.000000   1.000000
    5        8.054209      8.054211   0.000000   0.000000
    6        8.615512      8.615512   0.000000   0.000000
    7        8.870735      8.870736   0.000000   0.000000
    8       10.699531     10.699532   0.000000   0.000000
    9       12.478759     12.478759   0.000000   0.000000
   10       12.981290     12.981291   0.000000   0.000000
   11       14.604505     14.604505   0.000000   0.000000
   12       16.254910     16.254910   0.000000   0.000000
 
  0.2500000E+00  0.3571429E-01  0.3571429E-01  0.1822157E-03
    1       -5.538462     -5.538461   1.000000   1.000000
    2        2.154220      2.154221   1.000000   1.000000
    3        4.692435      4.692437   1.000000   1.000000
    4        5.074100      5.074101   1.000000   1.000000
    5        7.778865      7.778866   0.000000   0.000000
    6        8.928330      8.928330   0.000000   0.000000
    7        9.185933      9.185934   0.000000   0.000000
    8       11.822726     11.822728   0.000000   0.000000
    9       12.407696     12.407697   0.000000   0.000000
   10       13.142965     13.142965   0.000000   0.000000
   11       14.729470     14.729470   0.000000   0.000000
   12       16.905426     16.905425   0.000000   0.000000
 
  0.3571429E-01  0.2500000E+00  0.3571429E-01  0.1822157E-03
    1       -5.538462     -5.538461   1.000000   1.000000
    2        2.154220      2.154221   1.000000   1.000000
    3        4.692435      4.692437   1.000000   1.000000
    4        5.074100      5.074101   1.000000   1.000000
    5        7.778865      7.778866   0.000000   0.000000
    6        8.928330      8.928330   0.000000   0.000000
    7        9.185934      9.185934   0.000000   0.000000
    8       11.822726     11.822728   0.000000   0.000000
    9       12.407696     12.407697   0.000000   0.000000
   10       13.142964     13.142965   0.000000   0.000000
   11       14.729470     14.729470   0.000000   0.000000
   12       16.905426     16.905425   0.000000   0.000000
 
  0.3571429E-01  0.3571429E-01  0.2500000E+00  0.1822157E-03
    1       -5.538462     -5.538461   1.000000   1.000000
    2        2.154220      2.154221   1.000000   1.000000
    3        4.692435      4.692437   1.000000   1.000000
    4        5.074100      5.074101   1.000000   1.000000
    5        7.778865      7.778866   0.000000   0.000000
    6        8.928330      8.928330   0.000000   0.000000
    7        9.185933      9.185934   0.000000   0.000000
    8       11.822727     11.822727   0.000000   0.000000
    9       12.407696     12.407697   0.000000   0.000000
   10       13.142965     13.142965   0.000000   0.000000
   11       14.729471     14.729470   0.000000   0.000000
   12       16.905425     16.905425   0.000000   0.000000
 
  0.3571429E-01  0.0000000E+00 -0.2142857E+00  0.1822157E-03
    1       -5.538462     -5.538461   1.000000   1.000000
    2        2.154220      2.154221   1.000000   1.000000
    3        4.692436      4.692437   1.000000   1.000000
    4        5.074100      5.074102   1.000000   1.000000
    5        7.778865      7.778866   0.000000   0.000000
    6        8.928329      8.928331   0.000000   0.000000
    7        9.185933      9.185934   0.000000   0.000000
    8       11.822727     11.822727   0.000000   0.000000
    9       12.407696     12.407697   0.000000   0.000000
   10       13.142965     13.142965   0.000000   0.000000
   11       14.729470     14.729470   0.000000   0.000000
   12       16.905425     16.905425   0.000000   0.000000
 
  0.2500000E+00  0.2142857E+00  0.2142857E+00  0.1822157E-03
    1       -5.538462     -5.538461   1.000000   1.000000
    2        2.154220      2.154221   1.000000   1.000000
    3        4.692435      4.692437   1.000000   1.000000
    4        5.074100      5.074101   1.000000   1.000000
    5        7.778865      7.778866   0.000000   0.000000
    6        8.928330      8.928330   0.000000   0.000000
    7        9.185933      9.185934   0.000000   0.000000
    8       11.822726     11.822728   0.000000   0.000000
    9       12.407696     12.407697   0.000000   0.000000
   10       13.142965     13.142965   0.000000   0.000000
   11       14.729471     14.729470   0.000000   0.000000
   12       16.905425     16.905426   0.000000   0.000000
 
  0.3571429E-01 -0.2142857E+00  0.0000000E+00  0.1822157E-03
    1       -5.538462     -5.538461   1.000000   1.000000
    2        2.154220      2.154221   1.000000   1.000000
    3        4.692435      4.692437   1.000000   1.000000
    4        5.074100      5.074101   1.000000   1.000000
    5        7.778865      7.778866   0.000000   0.000000
    6        8.928330      8.928330   0.000000   0.000000
    7        9.185933      9.185934   0.000000   0.000000
    8       11.822726     11.822728   0.000000   0.000000
    9       12.407696     12.407697   0.000000   0.000000
   10       13.142965     13.142965   0.000000   0.000000
   11       14.729470     14.729471   0.000000   0.000000
   12       16.905426     16.905425   0.000000   0.000000
 
  0.0000000E+00  0.2142857E+00 -0.3571429E-01  0.1822157E-03
    1       -5.538462     -5.538461   1.000000   1.000000
    2        2.154220      2.154221   1.000000   1.000000
    3        4.692436      4.692437   1.000000   1.000000
    4        5.074100      5.074101   1.000000   1.000000
    5        7.778865      7.778866   0.000000   0.000000
    6        8.928330      8.928330   0.000000   0.000000
    7        9.185934      9.185934   0.000000   0.000000
    8       11.822726     11.822728   0.000000   0.000000
    9       12.407696     12.407697   0.000000   0.000000
   10       13.142965     13.142965   0.000000   0.000000
   11       14.729470     14.729471   0.000000   0.000000
   12       16.905426     16.905425   0.000000   0.000000
 
  0.2142857E+00  0.0000000E+00 -0.3571429E-01  0.1822157E-03
    1       -5.538462     -5.538461   1.000000   1.000000
    2        2.154220      2.154221   1.000000   1.000000
    3        4.692436      4.692437   1.000000   1.000000
    4        5.074100      5.074102   1.000000   1.000000
    5        7.778865      7.778866   0.000000   0.000000
    6        8.928329      8.928331   0.000000   0.000000
    7        9.185934      9.185934   0.000000   0.000000
    8       11.822727     11.822727   0.000000   0.000000
    9       12.407696     12.407697   0.000000   0.000000
   10       13.142964     13.142965   0.000000   0.000000
   11       14.729470     14.729470   0.000000   0.000000
   12       16.905426     16.905425   0.000000   0.000000
 
 -0.2142857E+00 -0.2142857E+00 -0.2500000E+00  0.1822157E-03
    1       -5.538462     -5.538461   1.000000   1.000000
    2        2.154220      2.154221   1.000000   1.000000
    3        4.692436      4.692437   1.000000   1.000000
    4        5.074100      5.074101   1.000000   1.000000
    5        7.778865      7.778866   0.000000   0.000000
    6        8.928329      8.928331   0.000000   0.000000
    7        9.185934      9.185934   0.000000   0.000000
    8       11.822726     11.822728   0.000000   0.000000
    9       12.407696     12.407697   0.000000   0.000000
   10       13.142965     13.142965   0.000000   0.000000
   11       14.729471     14.729470   0.000000   0.000000
   12       16.905425     16.905426   0.000000   0.000000
 
  0.2142857E+00  0.2500000E+00  0.2142857E+00  0.1822157E-03
    1       -5.538462     -5.538461   1.000000   1.000000
    2        2.154220      2.154221   1.000000   1.000000
    3        4.692436      4.692437   1.000000   1.000000
    4        5.074100      5.074101   1.000000   1.000000
    5        7.778865      7.778866   0.000000   0.000000
    6        8.928330      8.928330   0.000000   0.000000
    7        9.185933      9.185934   0.000000   0.000000
    8       11.822726     11.822728   0.000000   0.000000
    9       12.407696     12.407697   0.000000   0.000000
   10       13.142965     13.142965   0.000000   0.000000
   11       14.729471     14.729470   0.000000   0.000000
   12       16.905425     16.905426   0.000000   0.000000
 
  0.0000000E+00  0.3571429E-01 -0.2142857E+00  0.1822157E-03
    1       -5.538462     -5.538461   1.000000   1.000000
    2        2.154220      2.154221   1.000000   1.000000
    3        4.692435      4.692437   1.000000   1.000000
    4        5.074100      5.074101   1.000000   1.000000
    5        7.778865      7.778866   0.000000   0.000000
    6        8.928330      8.928330   0.000000   0.000000
    7        9.185933      9.185934   0.000000   0.000000
    8       11.822726     11.822728   0.000000   0.000000
    9       12.407696     12.407697   0.000000   0.000000
   10       13.142965     13.142965   0.000000   0.000000
   11       14.729470     14.729470   0.000000   0.000000
   12       16.905425     16.905425   0.000000   0.000000
 
 -0.2142857E+00  0.3571429E-01  0.0000000E+00  0.1822157E-03
    1       -5.538462     -5.538461   1.000000   1.000000
    2        2.154220      2.154221   1.000000   1.000000