Automatically generated mesh
    5488
Reciprocal lattice
    0.03571428571429    0.03571428571429    0.03571428571429            24
    0.03571428571429    0.00000000000000    0.00000000000000            24
    0.00000000000000    0.00000000000000   -0.03571428571429            24
    0.00000000000000    0.03571428571429    0.00000000000000            24
    0.10714285714286    0.03571428571429    0.03571428571429            24
    0.03571428571429    0.10714285714286    0.03571428571429            24
    0.03571428571429    0.03571428571429    0.10714285714286            24
    0.03571428571429    0.00000000000000   -0.07142857142857            24
    0.10714285714286    0.07142857142857    0.07142857142857            24
    0.03571428571429   -0.07142857142857    0.00000000000000            24
    0.00000000000000    0.07142857142857   -0.03571428571429            24
    0.07142857142857    0.00000000000000   -0.03571428571429            24
   -0.07142857142857   -0.07142857142857   -0.10714285714286            24
    0.07142857142857    0.10714285714286    0.07142857142857            24
    0.00000000000000    0.03571428571429   -0.07142857142857            24
   -0.07142857142857    0.03571428571429    0.00000000000000            24
    0.17857142857143    0.03571428571429    0.03571428571429            24
    0.03571428571429    0.17857142857143    0.03571428571429            24
    0.03571428571429    0.03571428571429    0.17857142857143            24
    0.03571428571429    0.00000000000000   -0.14285714285714            24
    0.17857142857143    0.14285714285714    0.14285714285714            24
    0.03571428571429   -0.14285714285714    0.00000000000000            24
    0.00000000000000    0.14285714285714   -0.03571428571429            24
    0.14285714285714    0.00000000000000   -0.03571428571429            24
   -0.14285714285714   -0.14285714285714   -0.17857142857143            24
    0.14285714285714    0.17857142857143    0.14285714285714            24
    0.00000000000000    0.03571428571429   -0.14285714285714            24
   -0.14285714285714    0.03571428571429    0.00000000000000            24
    0.25000000000000    0.03571428571429    0.03571428571429            24
    0.03571428571429    0.25000000000000    0.03571428571429            24
    0.03571428571429    0.03571428571429    0.25000000000000            24
    0.03571428571429    0.00000000000000   -0.21428571428571            24
    0.25000000000000    0.21428571428571    0.21428571428571            24
    0.03571428571429   -0.21428571428571    0.00000000000000            24
    0.00000000000000    0.21428571428571   -0.03571428571429            24
    0.21428571428571    0.00000000000000   -0.03571428571429            24
   -0.21428571428571   -0.21428571428571   -0.25000000000000            24
    0.21428571428571    0.25000000000000    0.21428571428571            24
    0.00000000000000    0.03571428571429   -0.21428571428571            24
   -0.21428571428571    0.03571428571429    0.00000000000000            24
    0.32142857142857    0.03571428571429    0.03571428571429            24
    0.03571428571429    0.32142857142857    0.03571428571429            24
    0.03571428571429    0.03571428571429    0.32142857142857            24
    0.03571428571429    0.00000000000000   -0.28571428571429            24
    0.32142857142857    0.28571428571429    0.28571428571429            24
    0.03571428571429   -0.28571428571429    0.00000000000000            24
    0.00000000000000    0.28571428571429   -0.03571428571429            24
    0.28571428571429    0.00000000000000   -0.03571428571429            24
   -0.28571428571429   -0.28571428571429   -0.32142857142857            24
    0.28571428571429    0.32142857142857    0.28571428571429            24
    0.00000000000000    0.03571428571429   -0.28571428571429            24
   -0.28571428571429    0.03571428571429    0.00000000000000            24
    0.39285714285714    0.03571428571429    0.03571428571429            24
    0.03571428571429    0.39285714285714    0.03571428571429            24
    0.03571428571429    0.03571428571429    0.39285714285714            24
    0.03571428571429    0.00000000000000   -0.35714285714286            24
    0.39285714285714    0.35714285714286    0.35714285714286            24
    0.03571428571429   -0.35714285714286    0.00000000000000            24
    0.00000000000000    0.35714285714286   -0.03571428571429            24
    0.35714285714286    0.00000000000000   -0.03571428571429            24
   -0.35714285714286   -0.35714285714286   -0.39285714285714            24
    0.35714285714286    0.39285714285714    0.35714285714286            24
    0.00000000000000    0.03571428571429   -0.35714285714286            24
   -0.35714285714286    0.03571428571429    0.00000000000000            24
    0.46428571428571    0.03571428571429    0.03571428571429            24
    0.03571428571429    0.46428571428571    0.03571428571429            24
    0.03571428571429    0.03571428571429    0.46428571428571            24
    0.03571428571429    0.00000000000000   -0.42857142857143            24
    0.46428571428571    0.42857142857143    0.42857142857143            24
    0.03571428571429   -0.42857142857143    0.00000000000000            24
    0.00000000000000    0.42857142857143   -0.03571428571429            24
    0.42857142857143    0.00000000000000   -0.03571428571429            24
   -0.42857142857143   -0.42857142857143   -0.46428571428571            24
    0.42857142857143    0.46428571428571    0.42857142857143            24
    0.00000000000000    0.03571428571429   -0.42857142857143            24
   -0.42857142857143    0.03571428571429    0.00000000000000            24
   -0.46428571428571    0.03571428571429    0.03571428571429            24
    0.03571428571429   -0.46428571428571    0.03571428571429            24
    0.03571428571429    0.03571428571429   -0.46428571428571            24
    0.03571428571429    0.00000000000000    0.50000000000000            24
   -0.46428571428571    0.50000000000000    0.50000000000000            24
    0.03571428571429    0.50000000000000    0.00000000000000            24
    0.00000000000000    0.50000000000000   -0.03571428571429            24
    0.50000000000000    0.00000000000000   -0.03571428571429            24
    0.50000000000000    0.50000000000000    0.46428571428571            24
    0.50000000000000   -0.46428571428571    0.50000000000000            24
    0.00000000000000    0.03571428571429    0.50000000000000            24
    0.50000000000000    0.03571428571429    0.00000000000000            24
   -0.39285714285714    0.03571428571429    0.03571428571429            24
    0.03571428571429   -0.39285714285714    0.03571428571429            24
    0.03571428571429    0.03571428571429   -0.39285714285714            24
    0.03571428571429    0.00000000000000    0.42857142857143            24
   -0.39285714285714   -0.42857142857143   -0.42857142857143            24
    0.03571428571429    0.42857142857143    0.00000000000000            24
    0.00000000000000   -0.42857142857143   -0.03571428571429            24
   -0.42857142857143    0.00000000000000   -0.03571428571429            24
    0.42857142857143    0.42857142857143    0.39285714285714            24
   -0.42857142857143   -0.39285714285714   -0.42857142857143            24
    0.00000000000000    0.03571428571429    0.42857142857143            24
    0.42857142857143    0.03571428571429    0.00000000000000            24
   -0.32142857142857    0.03571428571429    0.03571428571429            24
    0.03571428571429   -0.32142857142857    0.03571428571429            24
    0.03571428571429    0.03571428571429   -0.32142857142857            24
    0.03571428571429    0.00000000000000    0.35714285714286            24
   -0.32142857142857   -0.35714285714286   -0.35714285714286            24
    0.03571428571429    0.35714285714286    0.00000000000000            24
    0.00000000000000   -0.35714285714286   -0.03571428571429            24
   -0.35714285714286    0.00000000000000   -0.03571428571429            24
    0.35714285714286    0.35714285714286    0.32142857142857            24
   -0.35714285714286   -0.32142857142857   -0.35714285714286            24
    0.00000000000000    0.03571428571429    0.35714285714286            24
    0.35714285714286    0.03571428571429    0.00000000000000            24
   -0.25000000000000    0.03571428571429    0.03571428571429            24
    0.03571428571429   -0.25000000000000    0.03571428571429            24
    0.03571428571429    0.03571428571429   -0.25000000000000            24
    0.03571428571429    0.00000000000000    0.28571428571429            24
   -0.25000000000000   -0.28571428571429   -0.28571428571429            24
    0.03571428571429    0.28571428571429    0.00000000000000            24
    0.00000000000000   -0.28571428571429   -0.03571428571429            24
   -0.28571428571429    0.00000000000000   -0.03571428571429            24
    0.28571428571429    0.28571428571429    0.25000000000000            24
   -0.28571428571429   -0.25000000000000   -0.28571428571429            24
    0.00000000000000    0.03571428571429    0.28571428571429            24
    0.28571428571429    0.03571428571429    0.00000000000000            24
   -0.17857142857143    0.03571428571429    0.03571428571429            24
    0.03571428571429   -0.17857142857143    0.03571428571429            24
    0.03571428571429    0.03571428571429   -0.17857142857143            24
    0.03571428571429    0.00000000000000    0.21428571428571            24
   -0.17857142857143   -0.21428571428571   -0.21428571428571            24
    0.03571428571429    0.21428571428571    0.00000000000000            24
    0.00000000000000   -0.21428571428571   -0.03571428571429            24
   -0.21428571428571    0.00000000000000   -0.03571428571429            24
    0.21428571428571    0.21428571428571    0.17857142857143            24
   -0.21428571428571   -0.17857142857143   -0.21428571428571            24
    0.00000000000000    0.03571428571429    0.21428571428571            24
    0.21428571428571    0.03571428571429    0.00000000000000            24
   -0.10714285714286    0.03571428571429    0.03571428571429            24
    0.03571428571429   -0.10714285714286    0.03571428571429            24
    0.03571428571429    0.03571428571429   -0.10714285714286            24
    0.03571428571429    0.00000000000000    0.14285714285714            24
   -0.10714285714286   -0.14285714285714   -0.14285714285714            24
    0.03571428571429    0.14285714285714    0.00000000000000            24
    0.00000000000000   -0.14285714285714   -0.03571428571429            24
   -0.14285714285714    0.00000000000000   -0.03571428571429            24
    0.14285714285714    0.14285714285714    0.10714285714286            24
   -0.14285714285714   -0.10714285714286   -0.14285714285714            24
    0.00000000000000    0.03571428571429    0.14285714285714            24
    0.14285714285714    0.03571428571429    0.00000000000000            24
   -0.03571428571429    0.03571428571429    0.03571428571429            24
    0.03571428571429   -0.03571428571429    0.03571428571429            24
    0.03571428571429    0.03571428571429   -0.03571428571429            24
    0.03571428571429    0.00000000000000    0.07142857142857            24
   -0.03571428571429   -0.07142857142857   -0.07142857142857            24
    0.03571428571429    0.07142857142857    0.00000000000000            24
    0.00000000000000   -0.07142857142857   -0.03571428571429            24
   -0.07142857142857    0.00000000000000   -0.03571428571429            24
    0.07142857142857    0.07142857142857    0.03571428571429            24
   -0.07142857142857   -0.03571428571429   -0.07142857142857            24
    0.00000000000000    0.03571428571429    0.07142857142857            24
    0.07142857142857    0.03571428571429    0.00000000000000            24
    0.10714285714286    0.10714285714286    0.03571428571429            24
    0.03571428571429    0.10714285714286    0.10714285714286            24
    0.10714285714286    0.03571428571429    0.10714285714286            24
    0.10714285714286    0.07142857142857    0.00000000000000            24
    0.10714285714286    0.00000000000000    0.07142857142857            24
    0.03571428571429   -0.07142857142857   -0.07142857142857            24
    0.07142857142857    0.07142857142857   -0.03571428571429            24
    0.00000000000000   -0.07142857142857   -0.10714285714286            24
   -0.07142857142857    0.00000000000000   -0.10714285714286            24
    0.07142857142857    0.10714285714286    0.00000000000000            24
   -0.07142857142857    0.03571428571429   -0.07142857142857            24
    0.00000000000000    0.10714285714286    0.07142857142857            24
    0.17857142857143    0.10714285714286    0.03571428571429            24
    0.03571428571429    0.17857142857143    0.10714285714286            24
    0.10714285714286    0.03571428571429    0.17857142857143            24
    0.10714285714286    0.07142857142857   -0.07142857142857            24
    0.17857142857143    0.07142857142857    0.14285714285714            24
    0.03571428571429   -0.14285714285714   -0.07142857142857            24
    0.07142857142857    0.14285714285714   -0.03571428571429            24
    0.07142857142857   -0.07142857142857   -0.10714285714286            24
   -0.14285714285714   -0.07142857142857   -0.17857142857143            24
    0.14285714285714    0.17857142857143    0.07142857142857            24
   -0.07142857142857    0.03571428571429   -0.14285714285714            24
   -0.07142857142857    0.10714285714286    0.07142857142857            24
   -0.03571428571429    0.07142857142857    0.14285714285714            24
   -0.10714285714286    0.07142857142857   -0.07142857142857            24
   -0.17857142857143   -0.14285714285714   -0.07142857142857            24
    0.07142857142857    0.14285714285714    0.17857142857143            24
   -0.14285714285714   -0.07142857142857    0.03571428571429            24
    0.07142857142857   -0.07142857142857    0.10714285714286            24
    0.14285714285714   -0.03571428571429    0.07142857142857            24
   -0.07142857142857   -0.10714285714286    0.07142857142857            24
   -0.07142857142857   -0.17857142857143   -0.14285714285714            24
   -0.17857142857143   -0.03571428571429   -0.10714285714286            24
   -0.10714285714286   -0.17857142857143   -0.03571428571429            24
   -0.03571428571429   -0.10714285714286   -0.17857142857143            24
    0.25000000000000    0.10714285714286    0.03571428571429            24
    0.03571428571429    0.25000000000000    0.10714285714286            24
    0.10714285714286    0.03571428571429    0.25000000000000            24
    0.10714285714286    0.07142857142857   -0.14285714285714            24
    0.25000000000000    0.14285714285714    0.21428571428571            24
    0.03571428571429   -0.21428571428571   -0.07142857142857            24
    0.07142857142857    0.21428571428571   -0.03571428571429            24
    0.14285714285714   -0.07142857142857   -0.10714285714286            24
   -0.21428571428571   -0.14285714285714   -0.25000000000000            24
    0.21428571428571    0.25000000000000    0.14285714285714            24
   -0.07142857142857    0.03571428571429   -0.21428571428571            24
   -0.14285714285714    0.10714285714286    0.07142857142857            24
   -0.03571428571429    0.07142857142857    0.21428571428571            24
   -0.10714285714286    0.14285714285714   -0.07142857142857            24
   -0.25000000000000   -0.21428571428571   -0.14285714285714            24
    0.14285714285714    0.21428571428571    0.25000000000000            24
   -0.21428571428571   -0.07142857142857    0.03571428571429            24
    0.07142857142857   -0.14285714285714    0.10714285714286            24
    0.21428571428571   -0.03571428571429    0.07142857142857            24
   -0.07142857142857   -0.10714285714286    0.14285714285714            24
   -0.14285714285714   -0.25000000000000   -0.21428571428571            24
   -0.25000000000000   -0.03571428571429   -0.10714285714286            24
   -0.10714285714286   -0.25000000000000   -0.03571428571429            24
   -0.03571428571429   -0.10714285714286   -0.25000000000000            24
    0.32142857142857    0.10714285714286    0.03571428571429            24
    0.03571428571429    0.32142857142857    0.10714285714286            24
    0.10714285714286    0.03571428571429    0.32142857142857            24
    0.10714285714286    0.07142857142857   -0.21428571428571            24
    0.32142857142857    0.21428571428571    0.28571428571429            24
    0.03571428571429   -0.28571428571429   -0.07142857142857            24
    0.07142857142857    0.28571428571429   -0.03571428571429            24
    0.21428571428571   -0.07142857142857   -0.10714285714286            24
   -0.28571428571429   -0.21428571428571   -0.32142857142857            24
    0.28571428571429    0.32142857142857    0.21428571428571            24
   -0.07142857142857    0.03571428571429   -0.28571428571429            24
   -0.21428571428571    0.10714285714286    0.07142857142857            24
   -0.03571428571429    0.07142857142857    0.28571428571429            24
   -0.10714285714286    0.21428571428571   -0.07142857142857            24
   -0.32142857142857   -0.28571428571429   -0.21428571428571            24
    0.21428571428571    0.28571428571429    0.32142857142857            24
   -0.28571428571429   -0.07142857142857    0.03571428571429            24
    0.07142857142857   -0.21428571428571    0.10714285714286            24
    0.28571428571429   -0.03571428571429    0.07142857142857            24
   -0.07142857142857   -0.10714285714286    0.21428571428571            24
   -0.21428571428571   -0.32142857142857   -0.28571428571429            24
   -0.32142857142857   -0.03571428571429   -0.10714285714286            24
   -0.10714285714286   -0.32142857142857   -0.03571428571429            24
   -0.03571428571429   -0.10714285714286   -0.32142857142857            24
    0.39285714285714    0.10714285714286    0.03571428571429            24
    0.03571428571429    0.39285714285714    0.10714285714286            24
    0.10714285714286    0.03571428571429    0.39285714285714            24
    0.10714285714286    0.07142857142857   -0.28571428571429            24
    0.39285714285714    0.28571428571429    0.35714285714286            24
    0.03571428571429   -0.35714285714286   -0.07142857142857            24
    0.07142857142857    0.35714285714286   -0.03571428571429            24
    0.28571428571429   -0.07142857142857   -0.10714285714286            24
   -0.35714285714286   -0.28571428571429   -0.39285714285714            24
    0.35714285714286    0.39285714285714    0.28571428571429            24
   -0.07142857142857    0.03571428571429   -0.35714285714286            24
   -0.28571428571429    0.10714285714286    0.07142857142857            24
   -0.03571428571429    0.07142857142857    0.35714285714286            24
   -0.10714285714286    0.28571428571429   -0.07142857142857            24
   -0.39285714285714   -0.35714285714286   -0.28571428571429            24
    0.28571428571429    0.35714285714286    0.39285714285714            24
   -0.35714285714286   -0.07142857142857    0.03571428571429            24
    0.07142857142857   -0.28571428571429    0.10714285714286            24
    0.35714285714286   -0.03571428571429    0.07142857142857            24
   -0.07142857142857   -0.10714285714286    0.28571428571429            24
   -0.28571428571429   -0.39285714285714   -0.35714285714286            24
   -0.39285714285714   -0.03571428571429   -0.10714285714286            24
   -0.10714285714286   -0.39285714285714   -0.03571428571429            24
   -0.03571428571429   -0.10714285714286   -0.39285714285714            24
    0.46428571428571    0.10714285714286    0.03571428571429            24
    0.03571428571429    0.46428571428571    0.10714285714286            24
    0.10714285714286    0.03571428571429    0.46428571428571            24
    0.10714285714286    0.07142857142857   -0.35714285714286            24
    0.46428571428571    0.35714285714286    0.42857142857143            24
    0.03571428571429   -0.42857142857143   -0.07142857142857            24
    0.07142857142857    0.42857142857143   -0.03571428571429            24
    0.35714285714286   -0.07142857142857   -0.10714285714286            24
   -0.42857142857143   -0.35714285714286   -0.46428571428571            24
    0.42857142857143    0.46428571428571    0.35714285714286            24
   -0.07142857142857    0.03571428571429   -0.42857142857143            24
   -0.35714285714286    0.10714285714286    0.07142857142857            24
   -0.03571428571429    0.07142857142857    0.42857142857143            24
   -0.10714285714286    0.35714285714286   -0.07142857142857            24
   -0.46428571428571   -0.42857142857143   -0.35714285714286            24
    0.35714285714286    0.42857142857143    0.46428571428571            24
   -0.42857142857143   -0.07142857142857    0.03571428571429            24
    0.07142857142857   -0.35714285714286    0.10714285714286            24
    0.42857142857143   -0.03571428571429    0.07142857142857            24
   -0.07142857142857   -0.10714285714286    0.35714285714286            24
   -0.35714285714286   -0.46428571428571   -0.42857142857143            24
   -0.46428571428571   -0.03571428571429   -0.10714285714286            24
   -0.10714285714286   -0.46428571428571   -0.03571428571429            24
   -0.03571428571429   -0.10714285714286   -0.46428571428571            24
   -0.46428571428571    0.10714285714286    0.03571428571429            24
    0.03571428571429   -0.46428571428571    0.10714285714286            24
    0.10714285714286    0.03571428571429   -0.46428571428571            24
    0.10714285714286    0.07142857142857   -0.42857142857143            24
   -0.46428571428571    0.42857142857143    0.50000000000000            24
    0.03571428571429    0.50000000000000   -0.07142857142857            24
    0.07142857142857    0.50000000000000   -0.03571428571429            24
    0.42857142857143   -0.07142857142857   -0.10714285714286            24
    0.50000000000000   -0.42857142857143    0.46428571428571            24
    0.50000000000000   -0.46428571428571    0.42857142857143            24
   -0.07142857142857    0.03571428571429    0.50000000000000            24
   -0.42857142857143    0.10714285714286    0.07142857142857            24
   -0.03571428571429    0.07142857142857    0.50000000000000            24
   -0.10714285714286    0.42857142857143   -0.07142857142857            24
    0.46428571428571    0.50000000000000   -0.42857142857143            24
    0.42857142857143    0.50000000000000   -0.46428571428571            24
    0.50000000000000   -0.07142857142857    0.03571428571429            24
    0.07142857142857   -0.42857142857143    0.10714285714286            24
    0.50000000000000   -0.03571428571429    0.07142857142857            24
   -0.07142857142857   -0.10714285714286    0.42857142857143            24
   -0.42857142857143    0.46428571428571    0.50000000000000            24
    0.46428571428571   -0.03571428571429   -0.10714285714286            24
   -0.10714285714286    0.46428571428571   -0.03571428571429            24
   -0.03571428571429   -0.10714285714286    0.46428571428571            24
   -0.39285714285714    0.10714285714286    0.03571428571429            24
    0.03571428571429   -0.39285714285714    0.10714285714286            24
    0.10714285714286    0.03571428571429   -0.39285714285714            24
    0.10714285714286    0.07142857142857    0.50000000000000            24
   -0.39285714285714    0.50000000000000   -0.42857142857143            24
    0.03571428571429    0.42857142857143   -0.07142857142857            24
    0.07142857142857   -0.42857142857143   -0.03571428571429            24
    0.50000000000000   -0.07142857142857   -0.10714285714286            24
    0.42857142857143    0.50000000000000    0.39285714285714            24
   -0.42857142857143   -0.39285714285714    0.50000000000000            24
   -0.07142857142857    0.03571428571429    0.42857142857143            24
    0.50000000000000    0.10714285714286    0.07142857142857            24
   -0.03571428571429    0.07142857142857   -0.42857142857143            24
   -0.10714285714286    0.50000000000000   -0.07142857142857            24
    0.39285714285714    0.42857142857143    0.50000000000000            24
    0.50000000000000   -0.42857142857143   -0.39285714285714            24
    0.42857142857143   -0.07142857142857    0.03571428571429            24
    0.07142857142857    0.50000000000000    0.10714285714286            24
   -0.42857142857143   -0.03571428571429    0.07142857142857            24
   -0.07142857142857   -0.10714285714286    0.50000000000000            24
    0.50000000000000    0.39285714285714    0.42857142857143            24
    0.39285714285714   -0.03571428571429   -0.10714285714286            24
   -0.10714285714286    0.39285714285714   -0.03571428571429            24
   -0.03571428571429   -0.10714285714286    0.39285714285714            24
   -0.32142857142857    0.10714285714286    0.03571428571429            24
    0.03571428571429   -0.32142857142857    0.10714285714286            24
    0.10714285714286    0.03571428571429   -0.32142857142857            24
    0.10714285714286    0.07142857142857    0.42857142857143            24
   -0.32142857142857   -0.42857142857143   -0.35714285714286            24
    0.03571428571429    0.35714285714286   -0.07142857142857            24
    0.07142857142857   -0.35714285714286   -0.03571428571429            24
   -0.42857142857143   -0.07142857142857   -0.10714285714286            24
    0.35714285714286    0.42857142857143    0.32142857142857            24
   -0.35714285714286   -0.32142857142857   -0.42857142857143            24
   -0.07142857142857    0.03571428571429    0.35714285714286            24
    0.42857142857143    0.10714285714286    0.07142857142857            24
   -0.03571428571429    0.07142857142857   -0.35714285714286            24
   -0.10714285714286   -0.42857142857143   -0.07142857142857            24
    0.32142857142857    0.35714285714286    0.42857142857143            24
   -0.42857142857143   -0.35714285714286   -0.32142857142857            24
    0.35714285714286   -0.07142857142857    0.03571428571429            24
    0.07142857142857    0.42857142857143    0.10714285714286            24
   -0.35714285714286   -0.03571428571429    0.07142857142857            24
   -0.07142857142857   -0.10714285714286   -0.42857142857143            24
    0.42857142857143    0.32142857142857    0.35714285714286            24
    0.32142857142857   -0.03571428571429   -0.10714285714286            24
   -0.10714285714286    0.32142857142857   -0.03571428571429            24
   -0.03571428571429   -0.10714285714286    0.32142857142857            24
   -0.25000000000000    0.10714285714286    0.03571428571429            24
    0.03571428571429   -0.25000000000000    0.10714285714286            24
    0.10714285714286    0.03571428571429   -0.25000000000000            24
    0.10714285714286    0.07142857142857    0.35714285714286            24
   -0.25000000000000   -0.35714285714286   -0.28571428571429            24
    0.03571428571429    0.28571428571429   -0.07142857142857            24
    0.07142857142857   -0.28571428571429   -0.03571428571429            24
   -0.35714285714286   -0.07142857142857   -0.10714285714286            24
    0.28571428571429    0.35714285714286    0.25000000000000            24
   -0.28571428571429   -0.25000000000000   -0.35714285714286            24
   -0.07142857142857    0.03571428571429    0.28571428571429            24
    0.35714285714286    0.10714285714286    0.07142857142857            24
   -0.03571428571429    0.07142857142857   -0.28571428571429            24
   -0.10714285714286   -0.35714285714286   -0.07142857142857            24
    0.25000000000000    0.28571428571429    0.35714285714286            24
   -0.35714285714286   -0.28571428571429   -0.25000000000000            24
    0.28571428571429   -0.07142857142857    0.03571428571429            24
    0.07142857142857    0.35714285714286    0.10714285714286            24
   -0.28571428571429   -0.03571428571429    0.07142857142857            24
   -0.07142857142857   -0.10714285714286   -0.35714285714286            24
    0.35714285714286    0.25000000000000    0.28571428571429            24
    0.25000000000000   -0.03571428571429   -0.10714285714286            24
   -0.10714285714286    0.25000000000000   -0.03571428571429            24
   -0.03571428571429   -0.10714285714286    0.25000000000000            24
   -0.17857142857143    0.10714285714286    0.03571428571429            24
    0.03571428571429   -0.17857142857143    0.10714285714286            24
    0.10714285714286    0.03571428571429   -0.17857142857143            24
    0.10714285714286    0.07142857142857    0.28571428571429            24
   -0.17857142857143   -0.28571428571429   -0.21428571428571            24
    0.03571428571429    0.21428571428571   -0.07142857142857            24
    0.07142857142857   -0.21428571428571   -0.03571428571429            24
   -0.28571428571429   -0.07142857142857   -0.10714285714286            24
    0.21428571428571    0.28571428571429    0.17857142857143            24
   -0.21428571428571   -0.17857142857143   -0.28571428571429            24
   -0.07142857142857    0.03571428571429    0.21428571428571            24