  COHP#       atomMU       atomNU     distance     translation      ICOHP (at) eF   for spin  1
      1          Si1          Si1      5.46873       1  -1  -1           -0.00058 
      1       Si1_3s       Si1_3s      5.46873       1  -1  -1           -0.00023 
      1     Si1_3p_y       Si1_3s      5.46873       1  -1  -1            0.00000 
      1     Si1_3p_z       Si1_3s      5.46873       1  -1  -1           -0.00000 
      1     Si1_3p_x       Si1_3s      5.46873       1  -1  -1           -0.00014 
      1       Si1_3s     Si1_3p_y      5.46873       1  -1  -1            0.00000 
      1     Si1_3p_y     Si1_3p_y      5.46873       1  -1  -1           -0.00005 
      1     Si1_3p_z     Si1_3p_y      5.46873       1  -1  -1            0.00000 
      1     Si1_3p_x     Si1_3p_y      5.46873       1  -1  -1            0.00000 
      1       Si1_3s     Si1_3p_z      5.46873       1  -1  -1           -0.00000 
      1     Si1_3p_y     Si1_3p_z      5.46873       1  -1  -1            0.00000 
      1     Si1_3p_z     Si1_3p_z      5.46873       1  -1  -1           -0.00005 
      1     Si1_3p_x     Si1_3p_z      5.46873       1  -1  -1           -0.00000 
      1       Si1_3s     Si1_3p_x      5.46873       1  -1  -1           -0.00014 
      1     Si1_3p_y     Si1_3p_x      5.46873       1  -1  -1            0.00000 
      1     Si1_3p_z     Si1_3p_x      5.46873       1  -1  -1           -0.00000 
      1     Si1_3p_x     Si1_3p_x      5.46873       1  -1  -1            0.00003 
      2          Si1          Si1      3.86697       0   0  -1           -0.00400 
      2       Si1_3s       Si1_3s      3.86697       0   0  -1            0.00004 
      2     Si1_3p_y       Si1_3s      3.86697       0   0  -1            0.00082 
      2     Si1_3p_z       Si1_3s      3.86697       0   0  -1           -0.00092 
      2     Si1_3p_x       Si1_3s      3.86697       0   0  -1            0.00082 
      2       Si1_3s     Si1_3p_y      3.86697       0   0  -1            0.00082 
      2     Si1_3p_y     Si1_3p_y      3.86697       0   0  -1           -0.00035 
      2     Si1_3p_z     Si1_3p_y      3.86697       0   0  -1           -0.00023 
      2     Si1_3p_x     Si1_3p_y      3.86697       0   0  -1           -0.00121 
      2       Si1_3s     Si1_3p_z      3.86697       0   0  -1           -0.00092 
      2     Si1_3p_y     Si1_3p_z      3.86697       0   0  -1           -0.00023 
      2     Si1_3p_z     Si1_3p_z      3.86697       0   0  -1           -0.00142 
      2     Si1_3p_x     Si1_3p_z      3.86697       0   0  -1           -0.00023 
      2       Si1_3s     Si1_3p_x      3.86697       0   0  -1            0.00082 
      2     Si1_3p_y     Si1_3p_x      3.86697       0   0  -1           -0.00121 
      2     Si1_3p_z     Si1_3p_x      3.86697       0   0  -1           -0.00023 
      2     Si1_3p_x     Si1_3p_x      3.86697       0   0  -1           -0.00035 
      3          Si1          Si1      3.86697       1   0  -1           -0.00400 
      3       Si1_3s       Si1_3s      3.86697       1   0  -1            0.00004 
      3     Si1_3p_y       Si1_3s      3.86697       1   0  -1           -0.00092 
      3     Si1_3p_z       Si1_3s      3.86697       1   0  -1            0.00082 
      3     Si1_3p_x       Si1_3s      3.86697       1   0  -1            0.00082 
      3       Si1_3s     Si1_3p_y      3.86697       1   0  -1           -0.00092 
      3     Si1_3p_y     Si1_3p_y      3.86697       1   0  -1           -0.00142 
      3     Si1_3p_z     Si1_3p_y      3.86697       1   0  -1           -0.00023 
      3     Si1_3p_x     Si1_3p_y      3.86697       1   0  -1           -0.00023 
      3       Si1_3s     Si1_3p_z      3.86697       1   0  -1            0.00082 
      3     Si1_3p_y     Si1_3p_z      3.86697       1   0  -1           -0.00023 
      3     Si1_3p_z     Si1_3p_z      3.86697       1   0  -1           -0.00035 
      3     Si1_3p_x     Si1_3p_z      3.86697       1   0  -1           -0.00121 
      3       Si1_3s     Si1_3p_x      3.86697       1   0  -1            0.00082 
      3     Si1_3p_y     Si1_3p_x      3.86697       1   0  -1           -0.00023 
      3     Si1_3p_z     Si1_3p_x      3.86697       1   0  -1           -0.00121 
      3     Si1_3p_x     Si1_3p_x      3.86697       1   0  -1           -0.00035 
      4          Si1          Si1      5.46873      -1   1  -1           -0.00058 
      4       Si1_3s       Si1_3s      5.46873      -1   1  -1           -0.00023 
      4     Si1_3p_y       Si1_3s      5.46873      -1   1  -1           -0.00014 
      4     Si1_3p_z       Si1_3s      5.46873      -1   1  -1           -0.00000 
      4     Si1_3p_x       Si1_3s      5.46873      -1   1  -1            0.00000 
      4       Si1_3s     Si1_3p_y      5.46873      -1   1  -1           -0.00014 
      4     Si1_3p_y     Si1_3p_y      5.46873      -1   1  -1            0.00003 
      4     Si1_3p_z     Si1_3p_y      5.46873      -1   1  -1           -0.00000 
      4     Si1_3p_x     Si1_3p_y      5.46873      -1   1  -1            0.00000 
      4       Si1_3s     Si1_3p_z      5.46873      -1   1  -1           -0.00000 
      4     Si1_3p_y     Si1_3p_z      5.46873      -1   1  -1           -0.00000 
      4     Si1_3p_z     Si1_3p_z      5.46873      -1   1  -1           -0.00005 
      4     Si1_3p_x     Si1_3p_z      5.46873      -1   1  -1            0.00000 
      4       Si1_3s     Si1_3p_x      5.46873      -1   1  -1           -0.00000 
      4     Si1_3p_y     Si1_3p_x      5.46873      -1   1  -1            0.00000 
      4     Si1_3p_z     Si1_3p_x      5.46873      -1   1  -1           -0.00000 
      4     Si1_3p_x     Si1_3p_x      5.46873      -1   1  -1           -0.00005 
      5          Si1          Si1      3.86697       0   1  -1           -0.00400 
      5       Si1_3s       Si1_3s      3.86697       0   1  -1            0.00004 
      5     Si1_3p_y       Si1_3s      3.86697       0   1  -1            0.00082 
      5     Si1_3p_z       Si1_3s      3.86697       0   1  -1            0.00082 
      5     Si1_3p_x       Si1_3s      3.86697       0   1  -1           -0.00092 
      5       Si1_3s     Si1_3p_y      3.86697       0   1  -1            0.00082 
      5     Si1_3p_y     Si1_3p_y      3.86697       0   1  -1           -0.00035 
      5     Si1_3p_z     Si1_3p_y      3.86697       0   1  -1           -0.00121 
      5     Si1_3p_x     Si1_3p_y      3.86697       0   1  -1           -0.00023 
      5       Si1_3s     Si1_3p_z      3.86697       0   1  -1            0.00082 
      5     Si1_3p_y     Si1_3p_z      3.86697       0   1  -1           -0.00121 
      5     Si1_3p_z     Si1_3p_z      3.86697       0   1  -1           -0.00035 
      5     Si1_3p_x     Si1_3p_z      3.86697       0   1  -1           -0.00023 
      5       Si1_3s     Si1_3p_x      3.86697       0   1  -1           -0.00092 
      5     Si1_3p_y     Si1_3p_x      3.86697       0   1  -1           -0.00023 
      5     Si1_3p_z     Si1_3p_x      3.86697       0   1  -1           -0.00023 
      5     Si1_3p_x     Si1_3p_x      3.86697       0   1  -1           -0.00142 
      6          Si1          Si1      5.46873       1   1  -1           -0.00058 
      6       Si1_3s       Si1_3s      5.46873       1   1  -1           -0.00023 
      6     Si1_3p_y       Si1_3s      5.46873       1   1  -1            0.00000 
      6     Si1_3p_z       Si1_3s      5.46873       1   1  -1           -0.00014 
      6     Si1_3p_x       Si1_3s      5.46873       1   1  -1            0.00000 
      6       Si1_3s     Si1_3p_y      5.46873       1   1  -1           -0.00000 
      6     Si1_3p_y     Si1_3p_y      5.46873       1   1  -1           -0.00005 
      6     Si1_3p_z     Si1_3p_y      5.46873       1   1  -1           -0.00000 
      6     Si1_3p_x     Si1_3p_y      5.46873       1   1  -1           -0.00000 
      6       Si1_3s     Si1_3p_z      5.46873       1   1  -1           -0.00014 
      6     Si1_3p_y     Si1_3p_z      5.46873       1   1  -1           -0.00000 
      6     Si1_3p_z     Si1_3p_z      5.46873       1   1  -1            0.00003 
      6     Si1_3p_x     Si1_3p_z      5.46873       1   1  -1           -0.00000 
      6       Si1_3s     Si1_3p_x      5.46873       1   1  -1           -0.00000 
      6     Si1_3p_y     Si1_3p_x      5.46873       1   1  -1           -0.00000 
      6     Si1_3p_z     Si1_3p_x      5.46873       1   1  -1           -0.00000 
      6     Si1_3p_x     Si1_3p_x      5.46873       1   1  -1           -0.00005 
      7          Si1          Si1      3.86697       0  -1   0           -0.00400 
      7       Si1_3s       Si1_3s      3.86697       0  -1   0            0.00004 
      7     Si1_3p_y       Si1_3s      3.86697       0  -1   0           -0.00092 
      7     Si1_3p_z       Si1_3s      3.86697       0  -1   0            0.00082 
      7     Si1_3p_x       Si1_3s      3.86697       0  -1   0            0.00082 
      7       Si1_3s     Si1_3p_y      3.86697       0  -1   0           -0.00092 
      7     Si1_3p_y     Si1_3p_y      3.86697       0  -1   0           -0.00142 
      7     Si1_3p_z     Si1_3p_y      3.86697       0  -1   0           -0.00023 
      7     Si1_3p_x     Si1_3p_y      3.86697       0  -1   0           -0.00023 
      7       Si1_3s     Si1_3p_z      3.86697       0  -1   0            0.00082 
      7     Si1_3p_y     Si1_3p_z      3.86697       0  -1   0           -0.00023 
      7     Si1_3p_z     Si1_3p_z      3.86697       0  -1   0           -0.00035 
      7     Si1_3p_x     Si1_3p_z      3.86697       0  -1   0           -0.00121 
      7       Si1_3s     Si1_3p_x      3.86697       0  -1   0            0.00082 
      7     Si1_3p_y     Si1_3p_x      3.86697       0  -1   0           -0.00023 
      7     Si1_3p_z     Si1_3p_x      3.86697       0  -1   0           -0.00121 
      7     Si1_3p_x     Si1_3p_x      3.86697       0  -1   0           -0.00035 
      8          Si1          Si1      3.86697       1  -1   0           -0.00400 
      8       Si1_3s       Si1_3s      3.86697       1  -1   0            0.00004 
      8     Si1_3p_y       Si1_3s      3.86697       1  -1   0            0.00082 
      8     Si1_3p_z       Si1_3s      3.86697       1  -1   0           -0.00092 
      8     Si1_3p_x       Si1_3s      3.86697       1  -1   0            0.00082 
      8       Si1_3s     Si1_3p_y      3.86697       1  -1   0            0.00082 
      8     Si1_3p_y     Si1_3p_y      3.86697       1  -1   0           -0.00035 
      8     Si1_3p_z     Si1_3p_y      3.86697       1  -1   0           -0.00023 
      8     Si1_3p_x     Si1_3p_y      3.86697       1  -1   0           -0.00121 
      8       Si1_3s     Si1_3p_z      3.86697       1  -1   0           -0.00092 
      8     Si1_3p_y     Si1_3p_z      3.86697       1  -1   0           -0.00023 
      8     Si1_3p_z     Si1_3p_z      3.86697       1  -1   0           -0.00142 
      8     Si1_3p_x     Si1_3p_z      3.86697       1  -1   0           -0.00023 
      8       Si1_3s     Si1_3p_x      3.86697       1  -1   0            0.00082 
      8     Si1_3p_y     Si1_3p_x      3.86697       1  -1   0           -0.00121 
      8     Si1_3p_z     Si1_3p_x      3.86697       1  -1   0           -0.00023 
      8     Si1_3p_x     Si1_3p_x      3.86697       1  -1   0           -0.00035 
      9          Si1          Si1      3.86697      -1   0   0           -0.00400 
      9       Si1_3s       Si1_3s      3.86697      -1   0   0            0.00004 
      9     Si1_3p_y       Si1_3s      3.86697      -1   0   0            0.00082 
      9     Si1_3p_z       Si1_3s      3.86697      -1   0   0            0.00082 
      9     Si1_3p_x       Si1_3s      3.86697      -1   0   0           -0.00092 
      9       Si1_3s     Si1_3p_y      3.86697      -1   0   0            0.00082 
      9     Si1_3p_y     Si1_3p_y      3.86697      -1   0   0           -0.00035 
      9     Si1_3p_z     Si1_3p_y      3.86697      -1   0   0           -0.00121 
      9     Si1_3p_x     Si1_3p_y      3.86697      -1   0   0           -0.00023 
      9       Si1_3s     Si1_3p_z      3.86697      -1   0   0            0.00082 
      9     Si1_3p_y     Si1_3p_z      3.86697      -1   0   0           -0.00121 
      9     Si1_3p_z     Si1_3p_z      3.86697      -1   0   0           -0.00035 
      9     Si1_3p_x     Si1_3p_z      3.86697      -1   0   0           -0.00023 
      9       Si1_3s     Si1_3p_x      3.86697      -1   0   0           -0.00092 
      9     Si1_3p_y     Si1_3p_x      3.86697      -1   0   0           -0.00023 
      9     Si1_3p_z     Si1_3p_x      3.86697      -1   0   0           -0.00023 
      9     Si1_3p_x     Si1_3p_x      3.86697      -1   0   0           -0.00142 
     10          Si1          Si1      3.86697       1   0   0           -0.00400 
     10       Si1_3s       Si1_3s      3.86697       1   0   0            0.00004 
     10     Si1_3p_y       Si1_3s      3.86697       1   0   0            0.00082 
     10     Si1_3p_z       Si1_3s      3.86697       1   0   0            0.00082 
     10     Si1_3p_x       Si1_3s      3.86697       1   0   0           -0.00092 
     10       Si1_3s     Si1_3p_y      3.86697       1   0   0            0.00082 
     10     Si1_3p_y     Si1_3p_y      3.86697       1   0   0           -0.00035 
     10     Si1_3p_z     Si1_3p_y      3.86697       1   0   0           -0.00121 
     10     Si1_3p_x     Si1_3p_y      3.86697       1   0   0           -0.00023 
     10       Si1_3s     Si1_3p_z      3.86697       1   0   0            0.00082 
     10     Si1_3p_y     Si1_3p_z      3.86697       1   0   0           -0.00121 
     10     Si1_3p_z     Si1_3p_z      3.86697       1   0   0           -0.00035 
     10     Si1_3p_x     Si1_3p_z      3.86697       1   0   0           -0.00023 
     10       Si1_3s     Si1_3p_x      3.86697       1   0   0           -0.00092 
     10     Si1_3p_y     Si1_3p_x      3.86697       1   0   0           -0.00023 
     10     Si1_3p_z     Si1_3p_x      3.86697       1   0   0           -0.00023 
     10     Si1_3p_x     Si1_3p_x      3.86697       1   0   0           -0.00142 
     11          Si1          Si1      3.86697      -1   1   0           -0.00400 
     11       Si1_3s       Si1_3s      3.86697      -1   1   0            0.00004 
     11     Si1_3p_y       Si1_3s      3.86697      -1   1   0            0.00082 
     11     Si1_3p_z       Si1_3s      3.86697      -1   1   0           -0.00092 
     11     Si1_3p_x       Si1_3s      3.86697      -1   1   0            0.00082 
     11       Si1_3s     Si1_3p_y      3.86697      -1   1   0            0.00082 
     11     Si1_3p_y     Si1_3p_y      3.86697      -1   1   0           -0.00035 
     11     Si1_3p_z     Si1_3p_y      3.86697      -1   1   0           -0.00023 
     11     Si1_3p_x     Si1_3p_y      3.86697      -1   1   0           -0.00121 
     11       Si1_3s     Si1_3p_z      3.86697      -1   1   0           -0.00092 
     11     Si1_3p_y     Si1_3p_z      3.86697      -1   1   0           -0.00023 
     11     Si1_3p_z     Si1_3p_z      3.86697      -1   1   0           -0.00142 
     11     Si1_3p_x     Si1_3p_z      3.86697      -1   1   0           -0.00023 
     11       Si1_3s     Si1_3p_x      3.86697      -1   1   0            0.00082 
     11     Si1_3p_y     Si1_3p_x      3.86697      -1   1   0           -0.00121 
     11     Si1_3p_z     Si1_3p_x      3.86697      -1   1   0           -0.00023 
     11     Si1_3p_x     Si1_3p_x      3.86697      -1   1   0           -0.00035 
     12          Si1          Si1      3.86697       0   1   0           -0.00400 
     12       Si1_3s       Si1_3s      3.86697       0   1   0            0.00004 
     12     Si1_3p_y       Si1_3s      3.86697       0   1   0           -0.00092 
     12     Si1_3p_z       Si1_3s      3.86697       0   1   0            0.00082 
     12     Si1_3p_x       Si1_3s      3.86697       0   1   0            0.00082 
     12       Si1_3s     Si1_3p_y      3.86697       0   1   0           -0.00092 
     12     Si1_3p_y     Si1_3p_y      3.86697       0   1   0           -0.00142 
     12     Si1_3p_z     Si1_3p_y      3.86697       0   1   0           -0.00023 
     12     Si1_3p_x     Si1_3p_y      3.86697       0   1   0           -0.00023 
     12       Si1_3s     Si1_3p_z      3.86697       0   1   0            0.00082 
     12     Si1_3p_y     Si1_3p_z      3.86697       0   1   0           -0.00023 
     12     Si1_3p_z     Si1_3p_z      3.86697       0   1   0           -0.00035 
     12     Si1_3p_x     Si1_3p_z      3.86697       0   1   0           -0.00121 
     12       Si1_3s     Si1_3p_x      3.86697       0   1   0            0.00082 
     12     Si1_3p_y     Si1_3p_x      3.86697       0   1   0           -0.00023 
     12     Si1_3p_z     Si1_3p_x      3.86697       0   1   0           -0.00121 
     12     Si1_3p_x     Si1_3p_x      3.86697       0   1   0           -0.00035 
     13          Si1          Si1      5.46873      -1  -1   1           -0.00058 
     13       Si1_3s       Si1_3s      5.46873      -1  -1   1           -0.00023 
     13     Si1_3p_y       Si1_3s      5.46873      -1  -1   1           -0.00000 
     13     Si1_3p_z       Si1_3s      5.46873      -1  -1   1           -0.00014 
     13     Si1_3p_x       Si1_3s      5.46873      -1  -1   1           -0.00000 
     13       Si1_3s     Si1_3p_y      5.46873      -1  -1   1            0.00000 
     13     Si1_3p_y     Si1_3p_y      5.46873      -1  -1   1           -0.00005 
     13     Si1_3p_z     Si1_3p_y      5.46873      -1  -1   1           -0.00000 
     13     Si1_3p_x     Si1_3p_y      5.46873      -1  -1   1           -0.00000 
     13       Si1_3s     Si1_3p_z      5.46873      -1  -1   1           -0.00014 
     13     Si1_3p_y     Si1_3p_z      5.46873      -1  -1   1           -0.00000 
     13     Si1_3p_z     Si1_3p_z      5.46873      -1  -1   1            0.00003 
     13     Si1_3p_x     Si1_3p_z      5.46873      -1  -1   1           -0.00000 
     13       Si1_3s     Si1_3p_x      5.46873      -1  -1   1            0.00000 
     13     Si1_3p_y     Si1_3p_x      5.46873      -1  -1   1           -0.00000 
     13     Si1_3p_z     Si1_3p_x      5.46873      -1  -1   1           -0.00000 
     13     Si1_3p_x     Si1_3p_x      5.46873      -1  -1   1           -0.00005 
     14          Si1          Si1      3.86697       0  -1   1           -0.00400 
     14       Si1_3s       Si1_3s      3.86697       0  -1   1            0.00004 
     14     Si1_3p_y       Si1_3s      3.86697       0  -1   1            0.00082 
     14     Si1_3p_z       Si1_3s      3.86697       0  -1   1            0.00082 
     14     Si1_3p_x       Si1_3s      3.86697       0  -1   1           -0.00092 
     14       Si1_3s     Si1_3p_y      3.86697       0  -1   1            0.00082 
     14     Si1_3p_y     Si1_3p_y      3.86697       0  -1   1           -0.00035 
     14     Si1_3p_z     Si1_3p_y      3.86697       0  -1   1           -0.00121 
     14     Si1_3p_x     Si1_3p_y      3.86697       0  -1   1           -0.00023 
     14       Si1_3s     Si1_3p_z      3.86697       0  -1   1            0.00082 
     14     Si1_3p_y     Si1_3p_z      3.86697       0  -1   1           -0.00121 
     14     Si1_3p_z     Si1_3p_z      3.86697       0  -1   1           -0.00035 
     14     Si1_3p_x     Si1_3p_z      3.86697       0  -1   1           -0.00023 
     14       Si1_3s     Si1_3p_x      3.86697       0  -1   1           -0.00092 
     14     Si1_3p_y     Si1_3p_x      3.86697       0  -1   1           -0.00023 
     14     Si1_3p_z     Si1_3p_x      3.86697       0  -1   1           -0.00023 
     14     Si1_3p_x     Si1_3p_x      3.86697       0  -1   1           -0.00142 
     15          Si1          Si1      5.46873       1  -1   1           -0.00058 
     15       Si1_3s       Si1_3s      5.46873       1  -1   1           -0.00023 
     15     Si1_3p_y       Si1_3s      5.46873       1  -1   1           -0.00014 
     15     Si1_3p_z       Si1_3s      5.46873       1  -1   1           -0.00000 
     15     Si1_3p_x       Si1_3s      5.46873       1  -1   1           -0.00000 
     15       Si1_3s     Si1_3p_y      5.46873       1  -1   1           -0.00014 
     15     Si1_3p_y     Si1_3p_y      5.46873       1  -1   1            0.00003 
     15     Si1_3p_z     Si1_3p_y      5.46873       1  -1   1           -0.00000 
     15     Si1_3p_x     Si1_3p_y      5.46873       1  -1   1            0.00000 
     15       Si1_3s     Si1_3p_z      5.46873       1  -1   1           -0.00000 
     15     Si1_3p_y     Si1_3p_z      5.46873       1  -1   1           -0.00000 
     15     Si1_3p_z     Si1_3p_z      5.46873       1  -1   1           -0.00005 
     15     Si1_3p_x     Si1_3p_z      5.46873       1  -1   1           -0.00000 
     15       Si1_3s     Si1_3p_x      5.46873       1  -1   1            0.00000 
     15     Si1_3p_y     Si1_3p_x      5.46873       1  -1   1            0.00000 
     15     Si1_3p_z     Si1_3p_x      5.46873       1  -1   1            0.00000 
     15     Si1_3p_x     Si1_3p_x      5.46873       1  -1   1           -0.00005 
     16          Si1          Si1      3.86697      -1   0   1           -0.00400 
     16       Si1_3s       Si1_3s      3.86697      -1   0   1            0.00004 
     16     Si1_3p_y       Si1_3s      3.86697      -1   0   1           -0.00092 
     16     Si1_3p_z       Si1_3s      3.86697      -1   0   1            0.00082 
     16     Si1_3p_x       Si1_3s      3.86697      -1   0   1            0.00082 
     16       Si1_3s     Si1_3p_y      3.86697      -1   0   1           -0.00092 
     16     Si1_3p_y     Si1_3p_y      3.86697      -1   0   1           -0.00142 
     16     Si1_3p_z     Si1_3p_y      3.86697      -1   0   1           -0.00023 
     16     Si1_3p_x     Si1_3p_y      3.86697      -1   0   1           -0.00023 
     16       Si1_3s     Si1_3p_z      3.86697      -1   0   1            0.00082 
     16     Si1_3p_y     Si1_3p_z      3.86697      -1   0   1           -0.00023 
     16     Si1_3p_z     Si1_3p_z      3.86697      -1   0   1           -0.00035 
     16     Si1_3p_x     Si1_3p_z      3.86697      -1   0   1           -0.00121 
     16       Si1_3s     Si1_3p_x      3.86697      -1   0   1            0.00082 
     16     Si1_3p_y     Si1_3p_x      3.86697      -1   0   1           -0.00023 
     16     Si1_3p_z     Si1_3p_x      3.86697      -1   0   1           -0.00121 
     16     Si1_3p_x     Si1_3p_x      3.86697      -1   0   1           -0.00035 
     17          Si1          Si1      3.86697       0   0   1           -0.00400 
     17       Si1_3s       Si1_3s      3.86697       0   0   1            0.00004 
     17     Si1_3p_y       Si1_3s      3.86697       0   0   1            0.00082 
     17     Si1_3p_z       Si1_3s      3.86697       0   0   1           -0.00092 
     17     Si1_3p_x       Si1_3s      3.86697       0   0   1            0.00082 
     17       Si1_3s     Si1_3p_y      3.86697       0   0   1            0.00082 
     17     Si1_3p_y     Si1_3p_y      3.86697       0   0   1           -0.00035 
     17     Si1_3p_z     Si1_3p_y      3.86697       0   0   1           -0.00023 
     17     Si1_3p_x     Si1_3p_y      3.86697       0   0   1           -0.00121 
     17       Si1_3s     Si1_3p_z      3.86697       0   0   1           -0.00092 
     17     Si1_3p_y     Si1_3p_z      3.86697       0   0   1           -0.00023 
     17     Si1_3p_z     Si1_3p_z      3.86697       0   0   1           -0.00142 
     17     Si1_3p_x     Si1_3p_z      3.86697       0   0   1           -0.00023 
     17       Si1_3s     Si1_3p_x      3.86697       0   0   1            0.00082 
     17     Si1_3p_y     Si1_3p_x      3.86697       0   0   1           -0.00121 
     17     Si1_3p_z     Si1_3p_x      3.86697       0   0   1           -0.00023 
     17     Si1_3p_x     Si1_3p_x      3.86697       0   0   1           -0.00035 
     18          Si1          Si1      5.46873      -1   1   1           -0.00058 
     18       Si1_3s       Si1_3s      5.46873      -1   1   1           -0.00023 
     18     Si1_3p_y       Si1_3s      5.46873      -1   1   1            0.00000 
     18     Si1_3p_z       Si1_3s      5.46873      -1   1   1           -0.00000 
     18     Si1_3p_x       Si1_3s      5.46873      -1   1   1           -0.00014 
     18       Si1_3s     Si1_3p_y      5.46873      -1   1   1            0.00000 
     18     Si1_3p_y     Si1_3p_y      5.46873      -1   1   1           -0.00005 
     18     Si1_3p_z     Si1_3p_y      5.46873      -1   1   1            0.00000 
     18     Si1_3p_x     Si1_3p_y      5.46873      -1   1   1            0.00000 
     18       Si1_3s     Si1_3p_z      5.46873      -1   1   1           -0.00000 
     18     Si1_3p_y     Si1_3p_z      5.46873      -1   1   1            0.00000 
     18     Si1_3p_z     Si1_3p_z      5.46873      -1   1   1           -0.00005 
     18     Si1_3p_x     Si1_3p_z      5.46873      -1   1   1           -0.00000 
     18       Si1_3s     Si1_3p_x      5.46873      -1   1   1           -0.00014 
     18     Si1_3p_y     Si1_3p_x      5.46873      -1   1   1            0.00000 
     18     Si1_3p_z     Si1_3p_x      5.46873      -1   1   1           -0.00000 
     18     Si1_3p_x     Si1_3p_x      5.46873      -1   1   1            0.00003 
     19          Si2          Si1      5.95941       0   0  -2           -0.00944 
     19       Si2_3s       Si1_3s      5.95941       0   0  -2           -0.00002 
     19     Si2_3p_y       Si1_3s      5.95941       0   0  -2           -0.00175 
     19     Si2_3p_z       Si1_3s      5.95941       0   0  -2            0.00083 
     19     Si2_3p_x       Si1_3s      5.95941       0   0  -2           -0.00175 
     19       Si2_3s     Si1_3p_y      5.95941       0   0  -2           -0.00175 
     19     Si2_3p_y     Si1_3p_y      5.95941       0   0  -2           -0.00106 
     19     Si2_3p_z     Si1_3p_y      5.95941       0   0  -2           -0.00024 
     19     Si2_3p_x     Si1_3p_y      5.95941       0   0  -2           -0.00140 
     19       Si2_3s     Si1_3p_z      5.95941       0   0  -2            0.00083 
     19     Si2_3p_y     Si1_3p_z      5.95941       0   0  -2           -0.00024 
     19     Si2_3p_z     Si1_3p_z      5.95941       0   0  -2            0.00179 
     19     Si2_3p_x     Si1_3p_z      5.95941       0   0  -2           -0.00024 
     19       Si2_3s     Si1_3p_x      5.95941       0   0  -2           -0.00175 
     19     Si2_3p_y     Si1_3p_x      5.95941       0   0  -2           -0.00140 
     19     Si2_3p_z     Si1_3p_x      5.95941       0   0  -2           -0.00024 
     19     Si2_3p_x     Si1_3p_x      5.95941       0   0  -2           -0.00106 
     20          Si2          Si1      5.95941       1   0  -2           -0.00944 
     20       Si2_3s       Si1_3s      5.95941       1   0  -2           -0.00002 
     20     Si2_3p_y       Si1_3s      5.95941       1   0  -2            0.00083 
     20     Si2_3p_z       Si1_3s      5.95941       1   0  -2           -0.00175 
     20     Si2_3p_x       Si1_3s      5.95941       1   0  -2           -0.00175 
     20       Si2_3s     Si1_3p_y      5.95941       1   0  -2            0.00083 
     20     Si2_3p_y     Si1_3p_y      5.95941       1   0  -2            0.00179 
     20     Si2_3p_z     Si1_3p_y      5.95941       1   0  -2           -0.00024 
     20     Si2_3p_x     Si1_3p_y      5.95941       1   0  -2           -0.00024 
     20       Si2_3s     Si1_3p_z      5.95941       1   0  -2           -0.00175 
     20     Si2_3p_y     Si1_3p_z      5.95941       1   0  -2           -0.00024 
     20     Si2_3p_z     Si1_3p_z      5.95941       1   0  -2           -0.00106 
     20     Si2_3p_x     Si1_3p_z      5.95941       1   0  -2           -0.00140 
     20       Si2_3s     Si1_3p_x      5.95941       1   0  -2           -0.00175 
     20     Si2_3p_y     Si1_3p_x      5.95941       1   0  -2           -0.00024 
     20     Si2_3p_z     Si1_3p_x      5.95941       1   0  -2           -0.00140 
     20     Si2_3p_x     Si1_3p_x      5.95941       1   0  -2           -0.00106 
     21          Si2          Si1      5.95941       0   1  -2           -0.00944 
     21       Si2_3s       Si1_3s      5.95941       0   1  -2           -0.00002 
     21     Si2_3p_y       Si1_3s      5.95941       0   1  -2           -0.00175 
     21     Si2_3p_z       Si1_3s      5.95941       0   1  -2           -0.00175 
     21     Si2_3p_x       Si1_3s      5.95941       0   1  -2            0.00083 
     21       Si2_3s     Si1_3p_y      5.95941       0   1  -2           -0.00175 
     21     Si2_3p_y     Si1_3p_y      5.95941       0   1  -2           -0.00106 
     21     Si2_3p_z     Si1_3p_y      5.95941       0   1  -2           -0.00140 
     21     Si2_3p_x     Si1_3p_y      5.95941       0   1  -2           -0.00024 
     21       Si2_3s     Si1_3p_z      5.95941       0   1  -2           -0.00175 
     21     Si2_3p_y     Si1_3p_z      5.95941       0   1  -2           -0.00140 
     21     Si2_3p_z     Si1_3p_z      5.95941       0   1  -2           -0.00106 
     21     Si2_3p_x     Si1_3p_z      5.95941       0   1  -2           -0.00024 
     21       Si2_3s     Si1_3p_x      5.95941       0   1  -2            0.00083 
     21     Si2_3p_y     Si1_3p_x      5.95941       0   1  -2           -0.00024 
     21     Si2_3p_z     Si1_3p_x      5.95941       0   1  -2           -0.00024 
     21     Si2_3p_x     Si1_3p_x      5.95941       0   1  -2            0.00179 
     22          Si2          Si1      4.53443       0  -1  -1            0.00082 
     22       Si2_3s       Si1_3s      4.53443       0  -1  -1            0.00008 
     22     Si2_3p_y       Si1_3s      4.53443       0  -1  -1           -0.00012 