384  
36   

1    
  0.0100000000000000   0.0000000000000000   0.0000000000000000
  -0.3883772100    0.2257267400    0.0908455200
   0.0021246300   -0.0006033100   -0.0024447100
   0.0021009300   -0.0005973500   -0.0024456800
   0.0021123800   -0.0005969200   -0.0024500700
   0.0021043800   -0.0005956200   -0.0024496100
   0.0021110100   -0.0005974500   -0.0024556500
   0.0021067500   -0.0005977500   -0.0024554200
   0.0021088400   -0.0005957700   -0.0024533300
  -0.0054357900    0.0054519100   -0.0075800700
   0.1682357600   -0.0816569800   -0.0867451300
  -0.0054234300    0.0054340200   -0.0075736800
  -0.0054214200    0.0054264500   -0.0075733900
  -0.0054173800    0.0054265600   -0.0075710100
  -0.0054294300    0.0054371400   -0.0075757600
  -0.0054235000    0.0054318100   -0.0075741600
  -0.0054246900    0.0054313600   -0.0075722400
   0.0010432100    0.0023581100   -0.0124971600
   0.0010472200    0.0023568800   -0.0124880900
   0.1644536800   -0.1036394000   -0.0042473700
   0.0010329600    0.0023684100   -0.0124861500
   0.0010439600    0.0023540600   -0.0124914500
   0.0010475000    0.0023544200   -0.0124910800
   0.0010441800    0.0023531900   -0.0124870500
   0.0010501200    0.0023551000   -0.0124980200
  -0.0010519500   -0.0023379900    0.0124981300
  -0.0010359000   -0.0023706900    0.0124877500
  -0.0010446900   -0.0023542700    0.0124927900
  -0.0010434900   -0.0023552800    0.0124933800
  -0.0010452000   -0.0023572300    0.0124890400
  -0.0163290200    0.0214602300   -0.0304980500
  -0.0010371100   -0.0023548000    0.0124948600
  -0.0010556000   -0.0023516700    0.0124939500
   0.0054231900   -0.0054328300    0.0075765400
   0.0054239800   -0.0054279300    0.0075736600
   0.0054193300   -0.0054380200    0.0075754900
   0.0054256100   -0.0054212000    0.0075743300
   0.0054412400   -0.0054414100    0.0075858000
   0.0054231600   -0.0054259800    0.0075715900
  -0.0136084900   -0.0108746400    0.0536520700
   0.0054240900   -0.0054339500    0.0075738100
  -0.0021053400    0.0005971100    0.0024553100
  -0.0021067700    0.0005951000    0.0024496800
  -0.0020929900    0.0005996900    0.0024577800
  -0.0021207400    0.0005925400    0.0024462200
  -0.0021001800    0.0005998300    0.0024527100
  -0.0021081000    0.0006028400    0.0024357100
  -0.0020978800    0.0005872400    0.0024464100
   0.0305031000   -0.0224201400   -0.0042216400
   0.0021181900    0.0006274500   -0.0024988700
   0.0021149100    0.0005966500   -0.0024489200
   0.0021032500    0.0005981300   -0.0024388400
   0.0021108100    0.0005930500   -0.0024566800
   0.0021171300    0.0004318600   -0.0025508300
   0.0021149300    0.0005931000   -0.0024514900
   0.0021037000    0.0005788400   -0.0024458600
   0.0021109200    0.0005978700   -0.0024502300
  -0.0054283000   -0.0054473300   -0.0075849100
  -0.0054097800   -0.0054951600   -0.0075759200
  -0.0054119400   -0.0054240200   -0.0075706100
  -0.0053975500   -0.0054128700   -0.0075752400
  -0.0054227800   -0.0054382200   -0.0075741000
  -0.0053994700   -0.0054034600   -0.0075186900
  -0.0054238800   -0.0054341600   -0.0075736000
  -0.0054106800   -0.0054234400   -0.0075793700
   0.0009773000   -0.0024085700   -0.0124843500
   0.0010605400   -0.0023500200   -0.0124991800
   0.0010028000   -0.0023910000   -0.0124870300
   0.0010496100   -0.0023519700   -0.0124800700
   0.0010663800   -0.0023460300   -0.0124745900
   0.0010442500   -0.0023613400   -0.0124896400
   0.0010818100   -0.0023605700   -0.0125068200
   0.0010446900   -0.0023586300   -0.0124885400
  -0.0010513600    0.0023453400    0.0125126400
  -0.0008327600    0.0021921900    0.0124430600
  -0.0010341700    0.0023544300    0.0124882100
  -0.0011165700    0.0023535800    0.0126408300
  -0.0010424700    0.0023548700    0.0124907900
  -0.0010655300    0.0023409100    0.0125217200
  -0.0010426000    0.0023545400    0.0124913900
  -0.0010494800    0.0023601100    0.0125116600
   0.0053381700    0.0054359700    0.0076109600
   0.0054331700    0.0054310100    0.0075741700
   0.0055157700    0.0055661500    0.0076198400
   0.0054146000    0.0054017600    0.0075622400
   0.0054145900    0.0054339000    0.0075457300
   0.0054272400    0.0054322700    0.0075760100
   0.0054277200    0.0054196500    0.0075575200
   0.0054257100    0.0054289900    0.0075738400
  -0.0020975000   -0.0005991700    0.0024538900
  -0.0020411400   -0.0005476600    0.0025357000
  -0.0020978000   -0.0005985600    0.0024653200
  -0.0020414700   -0.0004613400    0.0023345700
  -0.0021045500   -0.0005963500    0.0024531900
  -0.0021240600   -0.0006103800    0.0024488700
  -0.0021047800   -0.0005977700    0.0024522100
  -0.0021239900   -0.0006036700    0.0024594300
   0.0020338400   -0.0006415000    0.0024701100
   0.0020343600   -0.0004085200    0.0025669800
   0.0021091300   -0.0005944800    0.0024581200
   0.0021088900   -0.0005922000    0.0024535800
   0.0021293100   -0.0006142800    0.0024683400
   0.0021289400   -0.0006187500    0.0024552400
   0.0021063300   -0.0005969800    0.0024541000
   0.0021062300   -0.0005984900    0.0024508500
  -0.0053906000    0.0057732800    0.0073722800
  -0.0054514200    0.0054640100    0.0074773400
  -0.0054219300    0.0054229000    0.0075702200
  -0.0054191500    0.0054333200    0.0075736300
  -0.0054176800    0.0054271900    0.0075429500
  -0.0054286100    0.0054228200    0.0075435200
  -0.0054281400    0.0054326400    0.0075781000
  -0.0054230400    0.0054308800    0.0075752000
   0.0010526400    0.0023579000    0.0124906100
   0.0010494700    0.0023488400    0.0124918900
   0.0010423000    0.0023755600    0.0124398400
   0.0014843800    0.0028370100    0.0128418300
   0.0010456300    0.0023549800    0.0124918700
   0.0010425000    0.0023549000    0.0124914600
   0.0010358700    0.0023698200    0.0125191400
   0.0010538000    0.0023840300    0.0125241100
  -0.0009133700   -0.0023618300   -0.0124032700
  -0.0010434800   -0.0023286800   -0.0124052100
  -0.0010509800   -0.0023518800   -0.0124882100
  -0.0010435000   -0.0023539300   -0.0124956400
  -0.0010129400   -0.0023820800   -0.0124273800
  -0.0010664700   -0.0023404500   -0.0124895200
  -0.0010450300   -0.0023568000   -0.0124889700
  -0.0010423400   -0.0023544900   -0.0124920000
   0.0054241000   -0.0054264500   -0.0075729700
   0.0054177200   -0.0054273500   -0.0075699300
   0.0054595200   -0.0054533300   -0.0075879900
   0.0055494100   -0.0055058100   -0.0076650900
   0.0054281700   -0.0054319900   -0.0075711500
   0.0054226900   -0.0054323900   -0.0075729600
   0.0054261000   -0.0053959100   -0.0076017400
   0.0054303300   -0.0054462200   -0.0075902600
  -0.0021094700    0.0005933100   -0.0024578100
  -0.0021063900    0.0005952800   -0.0024583700
  -0.0021260300    0.0005332600   -0.0024743700
  -0.0020745000    0.0005186100   -0.0023750200
  -0.0021098200    0.0005986300   -0.0024606300
  -0.0021059300    0.0005963400   -0.0024493800
  -0.0021273400    0.0006512200   -0.0024123500
  -0.0020741100    0.0005815700   -0.0024573000
   0.0021085300    0.0006009600    0.0024706500
   0.0021079900    0.0005960400    0.0024366000
   0.0021078100    0.0005968200    0.0024518200
   0.0021068900    0.0005977700    0.0024533400
   0.0021315600    0.0006156500    0.0023922800
   0.0021318400    0.0006210500    0.0024612800
   0.0020135000    0.0004915300    0.0024686500
   0.0020148600    0.0006660300    0.0024347100
  -0.0054291200   -0.0054266100    0.0075698000
  -0.0054213300   -0.0054338200    0.0075795600
  -0.0054226200   -0.0054260700    0.0075745200
  -0.0054256700   -0.0054341900    0.0075749600
  -0.0051962600   -0.0054647200    0.0076237100
  -0.0054585300   -0.0054676400    0.0075770900
  -0.0053748400   -0.0054524300    0.0077341400
  -0.0053977200   -0.0054417200    0.0075559800
   0.0010418000   -0.0023533700    0.0124847200
   0.0010475200   -0.0023565100    0.0124979800
   0.0010574700   -0.0023550900    0.0124935800
   0.0010326900   -0.0023578900    0.0124902800
   0.0010676900   -0.0023070100    0.0125297600
   0.0010173700   -0.0022875900    0.0124860200
   0.0010145400   -0.0022799000    0.0124404400
   0.0010592000   -0.0021247600    0.0124317900
  -0.0007823000    0.0028596000   -0.0125891800
  -0.0010646100    0.0022784200   -0.0125188700
  -0.0010256200    0.0024839900   -0.0125413900
  -0.0010683900    0.0023738000   -0.0124672400
  -0.0010460900    0.0023571900   -0.0124898900
  -0.0010453700    0.0023537700   -0.0124923900
  -0.0010492700    0.0023519300   -0.0124948500
  -0.0010438000    0.0023553800   -0.0124892400
   0.0054824100    0.0054723500   -0.0075916800
   0.0054291100    0.0054968100   -0.0075211400
   0.0054358800    0.0053554000   -0.0076007400
   0.0054747000    0.0050179800   -0.0076502800
   0.0054263600    0.0054332000   -0.0075749500
   0.0054232900    0.0054312600   -0.0075715300
   0.0054228300    0.0054226800   -0.0075699600
   0.0054257100    0.0054390800   -0.0075759300
  -0.0020161700   -0.0005866800   -0.0022707600
  -0.0020388000   -0.0005970400   -0.0024983200
  -0.0020154400   -0.0006737500   -0.0025326700
  -0.0020393000   -0.0005913300   -0.0024976800
  -0.0021076900   -0.0005940500   -0.0024573200
  -0.0021075900   -0.0005980000   -0.0024494200
  -0.0021077300   -0.0005965900   -0.0024567800
  -0.0021075100   -0.0005960500   -0.0024496400
   0.0440947700   -0.0075283900   -0.0104432900
  -0.0002123800   -0.0019632700    0.0014205700
  -0.0001851700   -0.0019639100    0.0014165300
  -0.0001922400   -0.0019613700    0.0014177800
  -0.0001875400   -0.0019603000    0.0014217900
  -0.0001917100   -0.0019621700    0.0014190900
  -0.0001894200   -0.0019587100    0.0014209000
  -0.0001907200   -0.0019618100    0.0014198800
  -0.0000199800   -0.0020018800    0.0015634700
   0.0076882800   -0.0080669900   -0.0106712400
  -0.0000113100   -0.0019998900    0.0015625000
  -0.0000153500   -0.0020029600    0.0015644700
  -0.0000092900   -0.0020029500    0.0015610200
  -0.0000087600   -0.0020013400    0.0015604900
  -0.0000093900   -0.0020021600    0.0015613500
  -0.0000072600   -0.0020026900    0.0015593100
  -0.0021993100   -0.0007412700    0.0016580600
  -0.0022074300   -0.0007309700    0.0016430200
   0.0057915100   -0.0140084800    0.0084228700
  -0.0022100300   -0.0007400600    0.0016550300
  -0.0022051000   -0.0007303800    0.0016469600
  -0.0022067300   -0.0007310100    0.0016445400
  -0.0022065800   -0.0007303100    0.0016462500
  -0.0022066400   -0.0007322400    0.0016446500
   0.0022027200    0.0007191500   -0.0016412500
   0.0022038900    0.0007425900   -0.0016524600
   0.0022052100    0.0007318400   -0.0016465500
   0.0022018400    0.0007310100   -0.0016471200
   0.0022013100    0.0007404900   -0.0016510800
  -0.0017395400   -0.0018316200   -0.0019585400
   0.0022040700    0.0007296000   -0.0016502000
   0.0022086900    0.0007327400   -0.0016438800
   0.0000121500    0.0020009900   -0.0015640200
   0.0000077900    0.0020009900   -0.0015606600
   0.0000114500    0.0020088600   -0.0015606000
   0.0000088700    0.0019937500   -0.0015644000
   0.0000017900    0.0019926600   -0.0015781000
   0.0000069400    0.0020027700   -0.0015576300
  -0.0040872500   -0.0000906700   -0.0035430200
   0.0000057600    0.0020064900   -0.0015589300
   0.0001879000    0.0019594300   -0.0014196000
   0.0001889600    0.0019640200   -0.0014189200
   0.0001686800    0.0019583600   -0.0014171400
   0.0002098200    0.0019663500   -0.0014221800
   0.0001863400    0.0019584400   -0.0014234200
   0.0001905300    0.0019621900   -0.0014209600
   0.0001876800    0.0019591300   -0.0014199600
   0.0013275000    0.0018992800   -0.0013881500
  -0.0001902300    0.0019567000    0.0014344900
  -0.0001932200    0.0019628800    0.0014138100
  -0.0001914000    0.0019568400    0.0014213900
  -0.0001903700    0.0019628900    0.0014195200
  -0.0001936900    0.0020762400    0.0012784000
  -0.0001999000    0.0019640600    0.0014212300
  -0.0001863000    0.0019929400    0.0014238200
  -0.0001942600    0.0019601700    0.0014200400
  -0.0000228200    0.0019953400    0.0015746400
  -0.0000091400    0.0020058700    0.0015269000
  -0.0000086500    0.0020031500    0.0015601100
  -0.0000089600    0.0020070000    0.0015816900
  -0.0000105100    0.0020067100    0.0015598400
  -0.0000614500    0.0019997200    0.0015792900
  -0.0000094900    0.0020033000    0.0015611900
  -0.0000102300    0.0019980800    0.0015627300
  -0.0022028600    0.0007205000    0.0016464900
  -0.0022057000    0.0007360400    0.0016425900
  -0.0022021500    0.0007461900    0.0016755000
  -0.0022112500    0.0007238500    0.0016330200
  -0.0022046100    0.0007126600    0.0016418900
  -0.0022063300    0.0007357100    0.0016467400
  -0.0022548400    0.0007402400    0.0016635500
  -0.0022076700    0.0007342100    0.0016459000
   0.0021942400   -0.0007322500   -0.0016547200
   0.0020970800   -0.0007369900   -0.0015721800
   0.0022058600   -0.0007232200   -0.0016447500
   0.0022018400   -0.0007397700   -0.0016515400
   0.0022041000   -0.0007326100   -0.0016478400
   0.0022074500   -0.0007315600   -0.0016420500
   0.0022043000   -0.0007314500   -0.0016475500
   0.0022039300   -0.0007322300   -0.0016441200
  -0.0000008600   -0.0020156200   -0.0015510300
   0.0000083000   -0.0019971200   -0.0015618400
   0.0000207400   -0.0019822700   -0.0015051100
  -0.0000081400   -0.0020047400   -0.0015506100
   0.0000074200   -0.0019995400   -0.0015630700
   0.0000089900   -0.0019999400   -0.0015614000
   0.0000126700   -0.0020006000   -0.0015628600
   0.0000076900   -0.0020012700   -0.0015607800
   0.0001785600   -0.0019601000   -0.0014182700
   0.0002229900   -0.0020010000   -0.0014180600
   0.0001797300   -0.0019578000   -0.0014248600
   0.0001396300   -0.0021758800   -0.0015112800
   0.0001881000   -0.0019592400   -0.0014193500
   0.0001877000   -0.0019634100   -0.0014194100
   0.0001876200   -0.0019595600   -0.0014202500
   0.0001889500   -0.0019618900   -0.0014167700
  -0.0002248800   -0.0019566500   -0.0014901100
  -0.0002120100   -0.0020442300   -0.0013715100
  -0.0001900800   -0.0019625400   -0.0014215400
  -0.0001890800   -0.0019659300   -0.0014176300
  -0.0001897400   -0.0019629300   -0.0014171400
  -0.0001904600   -0.0019643900   -0.0014196600
  -0.0001893300   -0.0019593600   -0.0014185800
  -0.0001889500   -0.0019607500   -0.0014205100
   0.0001733900   -0.0023040500   -0.0015453000
  -0.0000023500   -0.0020097200   -0.0015595700
  -0.0000012400   -0.0020037800   -0.0015566100
  -0.0000136700   -0.0020033200   -0.0015624300
  -0.0000055700   -0.0019964500   -0.0015586000
  -0.0000123600   -0.0020026400   -0.0015652500
  -0.0000100000   -0.0019988800   -0.0015630100
  -0.0000098700   -0.0020015400   -0.0015623700
  -0.0022157700   -0.0007340100   -0.0016434700
  -0.0022040800   -0.0007248600   -0.0016408800
  -0.0022164800   -0.0007440200   -0.0016400100
  -0.0019847700   -0.0008518300   -0.0014365800
  -0.0022048200   -0.0007327900   -0.0016454300
  -0.0022040200   -0.0007313300   -0.0016470500
  -0.0022100900   -0.0007362600   -0.0016419400
  -0.0022031400   -0.0007328900   -0.0016502200
   0.0022141300    0.0007419900    0.0016281300
   0.0022025200    0.0007282700    0.0016530000
   0.0022080800    0.0007298000    0.0016399000
   0.0022046300    0.0007299400    0.0016468400
   0.0022949500    0.0006751900    0.0016355900
   0.0022089000    0.0007298300    0.0016478200
   0.0022066600    0.0007345500    0.0016470800
   0.0022022700    0.0007299300    0.0016475300
   0.0000071900    0.0020003700    0.0015616300
   0.0000082400    0.0020065300    0.0015557900
   0.0000081200    0.0019989200    0.0015524400
   0.0000179700    0.0020223200    0.0015585300
   0.0000042700    0.0020017400    0.0015567400
   0.0000102500    0.0020033000    0.0015610400
   0.0000100100    0.0020026400    0.0015592900
   0.0000096400    0.0019719300    0.0015805300
   0.0001906600    0.0019612300    0.0014174400
   0.0001880200    0.0019614500    0.0014203100
   0.0001979000    0.0019441700    0.0014078000
   0.0001976300    0.0019463400    0.0014448700
   0.0001933800    0.0019524300    0.0014201800
   0.0001888900    0.0019618400    0.0014198600
   0.0001161400    0.0019762200    0.0014244500
   0.0001355800    0.0019768500    0.0014287000
  -0.0001924800    0.0019457200   -0.0014184200
  -0.0001901500    0.0019706000   -0.0014182100
  -0.0001859900    0.0019631400   -0.0014183100
  -0.0001935600    0.0019558800   -0.0014198000
  -0.0001742000    0.0019582100   -0.0014064700
  -0.0001824300    0.0019468500   -0.0014377900
  -0.0001934200    0.0019579800   -0.0014244900
  -0.0001792300    0.0019723600   -0.0014256600
  -0.0000009800    0.0019997300   -0.0015545900
  -0.0000162300    0.0020016000   -0.0015679000
  -0.0000090300    0.0019982100   -0.0015623000
  -0.0000097500    0.0020017300   -0.0015619200
  -0.0000279300    0.0022541000   -0.0015727800
   0.0000027000    0.0020025600   -0.0015702900
  -0.0000098000    0.0020067600   -0.0015516100
   0.0000034300    0.0019890600   -0.0015710000
  -0.0022052800    0.0007314200   -0.0016448600
  -0.0022046400    0.0007353200   -0.0016488800
  -0.0022161700    0.0007348700   -0.0016419900
  -0.0021951700    0.0007330100   -0.0016521400
  -0.0021995200    0.0007415900   -0.0016455400
  -0.0021974000    0.0007041500   -0.0016726700
  -0.0022027200    0.0007331900   -0.0016384200
  -0.0020644100    0.0006984600   -0.0016850700
   0.0023858700   -0.0006875500    0.0018414300
   0.0021881300   -0.0007261600    0.0016536100
   0.0022164200   -0.0007658700    0.0016335100
   0.0022004600   -0.0007142900    0.0016489500
   0.0022077300   -0.0007319000    0.0016434600
   0.0022047300   -0.0007305600    0.0016481900
   0.0022063400   -0.0007293600    0.0016435200
   0.0022056300   -0.0007312500    0.0016471400
   0.0000263800   -0.0019865300    0.0015750700
   0.0000141200   -0.0020125400    0.0015664700
  -0.0000092100   -0.0020001200    0.0015503600
  -0.0000478900   -0.0016377800    0.0016800300
   0.0000085600   -0.0020013900    0.0015588400
   0.0000089400   -0.0020025300    0.0015624700
   0.0000069700   -0.0020016300    0.0015606900
   0.0000102500   -0.0020040100    0.0015607300
   0.0001895800   -0.0019613000    0.0014115100
   0.0001788500   -0.0019497100    0.0014161700
   0.0001673700   -0.0019195500    0.0015105100
   0.0001737100   -0.0019876500    0.0014133600
   0.0001912700   -0.0019605800    0.0014191100
   0.0001887000   -0.0019606100    0.0014210400
   0.0001877500   -0.0019605400    0.0014192100
   0.0001911900   -0.0019627300    0.0014218400

1    
 -0.0100000000000000   0.0000000000000000   0.0000000000000000
   0.3915968400   -0.2301553900   -0.0845469400
   0.0020898200   -0.0005896300   -0.0024616400
   0.0021132600   -0.0005973100   -0.0024602200
   0.0021022800   -0.0005970500   -0.0024568200
   0.0021102600   -0.0005975100   -0.0024572500
   0.0021034900   -0.0005959100   -0.0024505100
   0.0021080600   -0.0005959800   -0.0024512500
   0.0021054200   -0.0005980600   -0.0024527900
  -0.0054121100    0.0054105400   -0.0075685600
  -0.1750464600    0.0884280300    0.0653506000
  -0.0054239300    0.0054264700   -0.0075745600
  -0.0054268800    0.0054344100   -0.0075748200
  -0.0054303600    0.0054352100   -0.0075767400
  -0.0054185100    0.0054249800   -0.0075722200
  -0.0054246800    0.0054295000   -0.0075739200
  -0.0054232100    0.0054296700   -0.0075759000
   0.0010474500    0.0023504500   -0.0124873200
   0.0010441500    0.0023517300   -0.0124967700
  -0.1656259500    0.1148271500   -0.0232171600
   0.0010582500    0.0023414300   -0.0124991000
   0.0010474200    0.0023554600   -0.0124932400
   0.0010435200    0.0023546800   -0.0124930900
   0.0010473900    0.0023559200   -0.0124977600
   0.0010405300    0.0023543000   -0.0124862700
  -0.0010388000   -0.0023710900    0.0124865200
  -0.0010551700   -0.0023381900    0.0124966000
  -0.0010463900   -0.0023550200    0.0124916900
  -0.0010479600   -0.0023547100    0.0124909500
  -0.0010459200   -0.0023514700    0.0124958300
   0.0142581100   -0.0262145700    0.0552677100
  -0.0010537300   -0.0023550700    0.0124894000
  -0.0010356100   -0.0023582900    0.0124909000
   0.0054246100   -0.0054285500    0.0075715100
   0.0054239800   -0.0054336800    0.0075748100
   0.0054287800   -0.0054234500    0.0075720400
   0.0054219500   -0.0054404000    0.0075739300
   0.0054070000   -0.0054212900    0.0075626500
   0.0054248600   -0.0054360200    0.0075762400
   0.0244279400    0.0001460900   -0.0385945300
   0.0054238800   -0.0054270900    0.0075745700
  -0.0021086900    0.0005963400    0.0024512300
  -0.0021081400    0.0005981900    0.0024563300
  -0.0021216000    0.0005939600    0.0024488100
  -0.0020937800    0.0006014300    0.0024596900
  -0.0021140100    0.0005932500    0.0024537000
  -0.0021064200    0.0005901800    0.0024706600
  -0.0021163900    0.0006068800    0.0024595100
  -0.0347094800    0.0235826400    0.0091968700
   0.0020975900    0.0005676200   -0.0024083300
   0.0020999100    0.0005972800   -0.0024576400
   0.0021112300    0.0005946000   -0.0024677500
   0.0021034700    0.0005997400   -0.0024500300
   0.0020965800    0.0007612000   -0.0023577300
   0.0020998800    0.0006007200   -0.0024543500
   0.0021117600    0.0006144700   -0.0024588600
   0.0021034900    0.0005957400   -0.0024548100
  -0.0054189100   -0.0054138000   -0.0075631100
  -0.0054383200   -0.0053682400   -0.0075697400
  -0.0054358400   -0.0054380400   -0.0075781700
  -0.0054511900   -0.0054494000   -0.0075726700
  -0.0054251700   -0.0054234200   -0.0075742100
  -0.0054487600   -0.0054575400   -0.0076298500
  -0.0054240200   -0.0054276600   -0.0075734200
  -0.0054370000   -0.0054387900   -0.0075684700
   0.0011123100   -0.0023013400   -0.0124991000
   0.0010309600   -0.0023587400   -0.0124856400
   0.0010890400   -0.0023182000   -0.0124976500
   0.0010414700   -0.0023571800   -0.0125042900
   0.0010245300   -0.0023627800   -0.0125099600
   0.0010469400   -0.0023482300   -0.0124945400
   0.0010098500   -0.0023499100   -0.0124769000
   0.0010462400   -0.0023504800   -0.0124951500
  -0.0010392100    0.0023638300    0.0124713600
  -0.0012575600    0.0025183600    0.0125389100
  -0.0010565500    0.0023549200    0.0124952800
  -0.0009738500    0.0023541800    0.0123413300
  -0.0010484200    0.0023548300    0.0124935400
  -0.0010256400    0.0023689900    0.0124619900
  -0.0010486100    0.0023541600    0.0124936500
  -0.0010415900    0.0023485100    0.0124726300
   0.0055093100    0.0054268100    0.0075368100
   0.0054153200    0.0054307200    0.0075737300
   0.0053307800    0.0052936300    0.0075278700
   0.0054331100    0.0054600600    0.0075855300
   0.0054334100    0.0054280200    0.0076021000
   0.0054209000    0.0054297700    0.0075724000
   0.0054206500    0.0054410100    0.0075898200
   0.0054219900    0.0054324700    0.0075743900
  -0.0021163300   -0.0005945000    0.0024522700
  -0.0021730400   -0.0006464000    0.0023723100
  -0.0021166500   -0.0005947400    0.0024400500
  -0.0021733500   -0.0007346500    0.0025765400
  -0.0021097700   -0.0005967900    0.0024531800
  -0.0020904600   -0.0005827900    0.0024568900
  -0.0021099800   -0.0005961900    0.0024542400
  -0.0020904100   -0.0005906700    0.0024461500
   0.0021801500   -0.0005485400    0.0024401800
   0.0021806400   -0.0007817000    0.0023425500
   0.0021055700   -0.0005995900    0.0024473300
   0.0021054000   -0.0006022100    0.0024524400
   0.0020855100   -0.0005795000    0.0024378700
   0.0020851300   -0.0005745800    0.0024498400
   0.0021081600   -0.0005966400    0.0024525300
   0.0021080800   -0.0005955700    0.0024556000
  -0.0054584400    0.0050821100    0.0077791000
  -0.0053976000    0.0053993100    0.0076692900
  -0.0054254100    0.0054377700    0.0075775400
  -0.0054290300    0.0054276200    0.0075739000
  -0.0054284700    0.0054333900    0.0076041800
  -0.0054196900    0.0054392200    0.0076047700
  -0.0054203300    0.0054291000    0.0075704400
  -0.0054249500    0.0054301400    0.0075732400
   0.0010389800    0.0023508500    0.0124932900
   0.0010409900    0.0023596900    0.0124919200
   0.0010494800    0.0023334800    0.0125436100
   0.0006168400    0.0018752400    0.0121516400
   0.0010457400    0.0023543300    0.0124928100
   0.0010487800    0.0023544500    0.0124932100
   0.0010554300    0.0023396100    0.0124657100
   0.0010364200    0.0023249700    0.0124591400
  -0.0011789100   -0.0023468900   -0.0125814100
  -0.0010483900   -0.0023798100   -0.0125782000
  -0.0010398000   -0.0023580300   -0.0124966500
  -0.0010481400   -0.0023559800   -0.0124889700
  -0.0010792500   -0.0023236900   -0.0125576900
  -0.0010242400   -0.0023684700   -0.0124954100
  -0.0010462800   -0.0023526800   -0.0124947200
  -0.0010486800   -0.0023550900   -0.0124917500
   0.0054245200   -0.0054353800   -0.0075753900
   0.0054297500   -0.0054345400   -0.0075781400
   0.0053883600   -0.0054074500   -0.0075591500
   0.0052966000   -0.0053538200   -0.0074836900
   0.0054198700   -0.0054296600   -0.0075762300
   0.0054254400   -0.0054293900   -0.0075751200
   0.0054217300   -0.0054658400   -0.0075469100
   0.0054182700   -0.0054167400   -0.0075575000
  -0.0021045900    0.0006000800   -0.0024490100
  -0.0021085000    0.0005976500   -0.0024485400
  -0.0020873700    0.0006611700   -0.0024320800
  -0.0021405200    0.0006742000   -0.0025307800
  -0.0021048800    0.0005948600   -0.0024447900
  -0.0021081500    0.0005969000   -0.0024558700
  -0.0020885000    0.0005436300   -0.0024921100
  -0.0021402400    0.0006130100   -0.0024483000
   0.0021064200    0.0005932400    0.0024354200
   0.0021059400    0.0005984700    0.0024698400
   0.0021072900    0.0005957800    0.0024540100
   0.0021066000    0.0005946900    0.0024528700
   0.0020829300    0.0005782700    0.0025124100
   0.0020831000    0.0005713600    0.0024449000
   0.0021983900    0.0007016400    0.0024366000
   0.0021996000    0.0005268300    0.0024699100
  -0.0054179000   -0.0054336100    0.0075783900
  -0.0054270900   -0.0054267700    0.0075690000
  -0.0054247000   -0.0054362600    0.0075729900
  -0.0054230700   -0.0054284100    0.0075731000
  -0.0056569600   -0.0054033500    0.0075241300
  -0.0053912400   -0.0053934300    0.0075696700
  -0.0054723000   -0.0054101700    0.0074156100
  -0.0054501800   -0.0054202400    0.0075926800
   0.0010502700   -0.0023551900    0.0124998500
   0.0010431700   -0.0023521700    0.0124867200
   0.0010340100   -0.0023547100    0.0124903600
   0.0010573700   -0.0023520700    0.0124935200
   0.0010235200   -0.0024019100    0.0124545400
   0.0010749200   -0.0024208900    0.0124988100
   0.0010765300   -0.0024279600    0.0125434500
   0.0010317900   -0.0025864900    0.0125567300
  -0.0013127600    0.0018408300   -0.0124015900
  -0.0010274700    0.0024312200   -0.0124655500
  -0.0010666800    0.0022256300   -0.0124434200
  -0.0010225600    0.0023353800   -0.0125181700
  -0.0010444200    0.0023530300   -0.0124944300
  -0.0010460900    0.0023562600   -0.0124915200
  -0.0010415200    0.0023564400   -0.0124898100
  -0.0010479800    0.0023529600   -0.0124950100
   0.0053657600    0.0053892900   -0.0075562800
   0.0054202700    0.0053643600   -0.0076277000
   0.0054122300    0.0055063800   -0.0075474300
   0.0053770600    0.0058497900   -0.0075005500
   0.0054222500    0.0054292100   -0.0075729000
   0.0054243600    0.0054311700   -0.0075763500
   0.0054255500    0.0054382600   -0.0075782300
   0.0054214200    0.0054213100   -0.0075723500
  -0.0021986700   -0.0006078400   -0.0026344800
  -0.0021758700   -0.0005980400   -0.0024091600
  -0.0021979500   -0.0005206200   -0.0023712900
  -0.0021762900   -0.0006032000   -0.0024065700
  -0.0021062900   -0.0005986300   -0.0024488900
  -0.0021072600   -0.0005947000   -0.0024565900
  -0.0021063300   -0.0005975600   -0.0024498200
  -0.0021072200   -0.0005978300   -0.0024568400
  -0.0442498700    0.0043312100    0.0112182600
  -0.0001664400   -0.0019579800    0.0014185700
  -0.0001937100   -0.0019575500    0.0014229800
  -0.0001864700   -0.0019600500    0.0014213700
  -0.0001913000   -0.0019612000    0.0014173500
  -0.0001872700   -0.0019593300    0.0014203800
  -0.0001894300   -0.0019626800    0.0014185100
  -0.0001881500   -0.0019597300    0.0014198000
   0.0000014500   -0.0020008800    0.0015594800
  -0.0076273300    0.0036776500    0.0135729900
  -0.0000067200   -0.0020033700    0.0015601200
  -0.0000028100   -0.0020001700    0.0015586300
  -0.0000090600   -0.0020000900    0.0015617000
  -0.0000097900   -0.0020013600    0.0015621300
  -0.0000087400   -0.0020010800    0.0015614700
  -0.0000108400   -0.0020005100    0.0015633900
  -0.0022111100   -0.0007222300    0.0016344200
  -0.0022029800   -0.0007324400    0.0016487600
  -0.0102883500    0.0129981700   -0.0050567600
  -0.0022005200   -0.0007233200    0.0016373800
  -0.0022056500   -0.0007328300    0.0016452100
  -0.0022040600   -0.0007321700    0.0016477700
  -0.0022039700   -0.0007330900    0.0016455600
  -0.0022042200   -0.0007310200    0.0016475500
   0.0022079700    0.0007443800   -0.0016509000
   0.0022062900    0.0007209300   -0.0016396000
   0.0022056200    0.0007314300   -0.0016457500
   0.0022089600    0.0007321700   -0.0016452000
   0.0022091700    0.0007229300   -0.0016412400
   0.0062102600    0.0033442400   -0.0013401000
   0.0022066900    0.0007334700   -0.0016417300
   0.0022021700    0.0007307100   -0.0016483100
   0.0000062400    0.0020020500   -0.0015588900
   0.0000104100    0.0020020900   -0.0015620400
   0.0000070900    0.0019938000   -0.0015623300
   0.0000093300    0.0020092100   -0.0015583200
   0.0000165400    0.0020101300   -0.0015447500
   0.0000114300    0.0020000900   -0.0015649300
   0.0040478900    0.0040618100    0.0003835000
   0.0000126000    0.0019968200   -0.0015640300
   0.0001910300    0.0019620500   -0.0014198600
   0.0001897400    0.0019577000   -0.0014205700
   0.0002102900    0.0019629900   -0.0014221400
   0.0001688600    0.0019548000   -0.0014173900
   0.0001925500    0.0019628500   -0.0014157900