phonopy:
  version: 1.13.2
  configuration:

supercell_matrix:
- [   2,   0,   0 ]
- [   0,   2,   0 ]
- [   0,   0,   2 ]

space_group:
  type: "Pbca"
  number: 61
  Hall_symbol: "-P 2ac 2ab"

primitive_cell:
  lattice:
  - [     6.756148262894329,     0.000000000000000,     0.000000000000000 ] # a
  - [     0.000000000000000,     7.318105733986611,     0.000000000000000 ] # b
  - [     0.000000000000000,     0.000000000000000,     9.287792102187135 ] # c
  points:
  - symbol: C  # 1
    coordinates: [  0.994196558433436,  0.937578753145617,  0.142174096962463 ]
    mass: 12.010700
  - symbol: C  # 2
    coordinates: [  0.128062838412483,  0.860799618439993,  0.044692429057077 ]
    mass: 12.010700
  - symbol: C  # 3
    coordinates: [  0.866188227045472,  0.076315477153022,  0.097313707686504 ]
    mass: 12.010700
  - symbol: C  # 4
    coordinates: [  0.133811772954528,  0.923684522846978,  0.902686292313496 ]
    mass: 12.010700
  - symbol: C  # 5
    coordinates: [  0.871937161587518,  0.139200381560007,  0.955307570942924 ]
    mass: 12.010700
  - symbol: C  # 6
    coordinates: [  0.005803441566564,  0.062421246854383,  0.857825903037537 ]
    mass: 12.010700
  - symbol: C  # 7
    coordinates: [  0.994196558433436,  0.562421246854383,  0.642174096962463 ]
    mass: 12.010700
  - symbol: C  # 8
    coordinates: [  0.128062838412483,  0.639200381560007,  0.544692429057076 ]
    mass: 12.010700
  - symbol: C  # 9
    coordinates: [  0.866188227045472,  0.423684522846978,  0.597313707686504 ]
    mass: 12.010700
  - symbol: C  # 10
    coordinates: [  0.133811772954528,  0.576315477153022,  0.402686292313496 ]
    mass: 12.010700
  - symbol: C  # 11
    coordinates: [  0.871937161587518,  0.360799618439993,  0.455307570942924 ]
    mass: 12.010700
  - symbol: C  # 12
    coordinates: [  0.005803441566564,  0.437578753145617,  0.357825903037536 ]
    mass: 12.010700
  - symbol: C  # 13
    coordinates: [  0.494196558433436,  0.937578753145617,  0.357825903037536 ]
    mass: 12.010700
  - symbol: C  # 14
    coordinates: [  0.628062838412482,  0.860799618439993,  0.455307570942924 ]
    mass: 12.010700
  - symbol: C  # 15
    coordinates: [  0.366188227045472,  0.076315477153022,  0.402686292313496 ]
    mass: 12.010700
  - symbol: C  # 16
    coordinates: [  0.633811772954528,  0.923684522846978,  0.597313707686504 ]
    mass: 12.010700
  - symbol: C  # 17
    coordinates: [  0.371937161587517,  0.139200381560007,  0.544692429057076 ]
    mass: 12.010700
  - symbol: C  # 18
    coordinates: [  0.505803441566564,  0.062421246854383,  0.642174096962463 ]
    mass: 12.010700
  - symbol: C  # 19
    coordinates: [  0.494196558433436,  0.562421246854383,  0.857825903037537 ]
    mass: 12.010700
  - symbol: C  # 20
    coordinates: [  0.628062838412482,  0.639200381560007,  0.955307570942924 ]
    mass: 12.010700
  - symbol: C  # 21
    coordinates: [  0.366188227045472,  0.423684522846978,  0.902686292313496 ]
    mass: 12.010700
  - symbol: C  # 22
    coordinates: [  0.633811772954528,  0.576315477153022,  0.097313707686504 ]
    mass: 12.010700
  - symbol: C  # 23
    coordinates: [  0.371937161587517,  0.360799618439993,  0.044692429057077 ]
    mass: 12.010700
  - symbol: C  # 24
    coordinates: [  0.505803441566564,  0.437578753145617,  0.142174096962463 ]
    mass: 12.010700
  - symbol: H  # 25
    coordinates: [  0.989362516803666,  0.889309933740043,  0.253182421881449 ]
    mass: 1.007940
  - symbol: H  # 26
    coordinates: [  0.227665974027971,  0.751520684627075,  0.078159076225386 ]
    mass: 1.007940
  - symbol: H  # 27
    coordinates: [  0.760511431951545,  0.135186663163671,  0.172732007401220 ]
    mass: 1.007940
  - symbol: H  # 28
    coordinates: [  0.239488568048455,  0.864813336836322,  0.827267992598779 ]
    mass: 1.007940
  - symbol: H  # 29
    coordinates: [  0.772334025972029,  0.248479315372925,  0.921840923774614 ]
    mass: 1.007940
  - symbol: H  # 30
    coordinates: [  0.010637483196334,  0.110690066259957,  0.746817578118551 ]
    mass: 1.007940
  - symbol: H  # 31
    coordinates: [  0.989362516803666,  0.610690066259957,  0.753182421881449 ]
    mass: 1.007940
  - symbol: H  # 32
    coordinates: [  0.227665974027971,  0.748479315372925,  0.578159076225386 ]
    mass: 1.007940
  - symbol: H  # 33
    coordinates: [  0.760511431951545,  0.364813336836329,  0.672732007401221 ]
    mass: 1.007940
  - symbol: H  # 34
    coordinates: [  0.239488568048455,  0.635186663163678,  0.327267992598780 ]
    mass: 1.007940
  - symbol: H  # 35
    coordinates: [  0.772334025972029,  0.251520684627075,  0.421840923774614 ]
    mass: 1.007940
  - symbol: H  # 36
    coordinates: [  0.010637483196334,  0.389309933740043,  0.246817578118551 ]
    mass: 1.007940
  - symbol: H  # 37
    coordinates: [  0.489362516803666,  0.889309933740043,  0.246817578118551 ]
    mass: 1.007940
  - symbol: H  # 38
    coordinates: [  0.727665974027971,  0.751520684627075,  0.421840923774614 ]
    mass: 1.007940
  - symbol: H  # 39
    coordinates: [  0.260511431951545,  0.135186663163671,  0.327267992598780 ]
    mass: 1.007940
  - symbol: H  # 40
    coordinates: [  0.739488568048455,  0.864813336836322,  0.672732007401221 ]
    mass: 1.007940
  - symbol: H  # 41
    coordinates: [  0.272334025972028,  0.248479315372925,  0.578159076225386 ]
    mass: 1.007940
  - symbol: H  # 42
    coordinates: [  0.510637483196334,  0.110690066259957,  0.753182421881449 ]
    mass: 1.007940
  - symbol: H  # 43
    coordinates: [  0.489362516803666,  0.610690066259957,  0.746817578118551 ]
    mass: 1.007940
  - symbol: H  # 44
    coordinates: [  0.727665974027971,  0.748479315372925,  0.921840923774614 ]
    mass: 1.007940
  - symbol: H  # 45
    coordinates: [  0.260511431951545,  0.364813336836329,  0.827267992598779 ]
    mass: 1.007940
  - symbol: H  # 46
    coordinates: [  0.739488568048455,  0.635186663163678,  0.172732007401220 ]
    mass: 1.007940
  - symbol: H  # 47
    coordinates: [  0.272334025972028,  0.251520684627075,  0.078159076225386 ]
    mass: 1.007940
  - symbol: H  # 48
    coordinates: [  0.510637483196334,  0.389309933740043,  0.253182421881449 ]
    mass: 1.007940
  reciprocal_lattice: # without 2pi
  - [     0.148013329649992,     0.000000000000000,     0.000000000000000 ] # a*
  - [     0.000000000000000,     0.136647383400846,     0.000000000000000 ] # b*
  - [     0.000000000000000,     0.000000000000000,     0.107668215330155 ] # c*

unit_cell:
  lattice:
  - [     6.756148262894329,     0.000000000000000,     0.000000000000000 ] # a
  - [     0.000000000000000,     7.318105733986611,     0.000000000000000 ] # b
  - [     0.000000000000000,     0.000000000000000,     9.287792102187135 ] # c
  points:
  - symbol: C  # 1
    coordinates: [  0.994196558433436,  0.937578753145617,  0.142174096962463 ]
    mass: 12.010700
    reduced_to: 1
  - symbol: C  # 2
    coordinates: [  0.128062838412483,  0.860799618439993,  0.044692429057077 ]
    mass: 12.010700
    reduced_to: 2
  - symbol: C  # 3
    coordinates: [  0.866188227045472,  0.076315477153022,  0.097313707686504 ]
    mass: 12.010700
    reduced_to: 3
  - symbol: C  # 4
    coordinates: [  0.133811772954528,  0.923684522846978,  0.902686292313496 ]
    mass: 12.010700
    reduced_to: 4
  - symbol: C  # 5
    coordinates: [  0.871937161587518,  0.139200381560007,  0.955307570942924 ]
    mass: 12.010700
    reduced_to: 5
  - symbol: C  # 6
    coordinates: [  0.005803441566564,  0.062421246854383,  0.857825903037537 ]
    mass: 12.010700
    reduced_to: 6
  - symbol: C  # 7
    coordinates: [  0.994196558433436,  0.562421246854383,  0.642174096962463 ]
    mass: 12.010700
    reduced_to: 7
  - symbol: C  # 8
    coordinates: [  0.128062838412483,  0.639200381560007,  0.544692429057076 ]
    mass: 12.010700
    reduced_to: 8
  - symbol: C  # 9
    coordinates: [  0.866188227045472,  0.423684522846978,  0.597313707686504 ]
    mass: 12.010700
    reduced_to: 9
  - symbol: C  # 10
    coordinates: [  0.133811772954528,  0.576315477153022,  0.402686292313496 ]
    mass: 12.010700
    reduced_to: 10
  - symbol: C  # 11
    coordinates: [  0.871937161587518,  0.360799618439993,  0.455307570942924 ]
    mass: 12.010700
    reduced_to: 11
  - symbol: C  # 12
    coordinates: [  0.005803441566564,  0.437578753145617,  0.357825903037536 ]
    mass: 12.010700
    reduced_to: 12
  - symbol: C  # 13
    coordinates: [  0.494196558433436,  0.937578753145617,  0.357825903037536 ]
    mass: 12.010700
    reduced_to: 13
  - symbol: C  # 14
    coordinates: [  0.628062838412482,  0.860799618439993,  0.455307570942924 ]
    mass: 12.010700
    reduced_to: 14
  - symbol: C  # 15
    coordinates: [  0.366188227045472,  0.076315477153022,  0.402686292313496 ]
    mass: 12.010700
    reduced_to: 15
  - symbol: C  # 16
    coordinates: [  0.633811772954528,  0.923684522846978,  0.597313707686504 ]
    mass: 12.010700
    reduced_to: 16
  - symbol: C  # 17
    coordinates: [  0.371937161587517,  0.139200381560007,  0.544692429057076 ]
    mass: 12.010700
    reduced_to: 17
  - symbol: C  # 18
    coordinates: [  0.505803441566564,  0.062421246854383,  0.642174096962463 ]
    mass: 12.010700
    reduced_to: 18
  - symbol: C  # 19
    coordinates: [  0.494196558433436,  0.562421246854383,  0.857825903037537 ]
    mass: 12.010700
    reduced_to: 19
  - symbol: C  # 20
    coordinates: [  0.628062838412482,  0.639200381560007,  0.955307570942924 ]
    mass: 12.010700
    reduced_to: 20
  - symbol: C  # 21
    coordinates: [  0.366188227045472,  0.423684522846978,  0.902686292313496 ]
    mass: 12.010700
    reduced_to: 21
  - symbol: C  # 22
    coordinates: [  0.633811772954528,  0.576315477153022,  0.097313707686504 ]
    mass: 12.010700
    reduced_to: 22
  - symbol: C  # 23
    coordinates: [  0.371937161587517,  0.360799618439993,  0.044692429057077 ]
    mass: 12.010700
    reduced_to: 23
  - symbol: C  # 24
    coordinates: [  0.505803441566564,  0.437578753145617,  0.142174096962463 ]
    mass: 12.010700
    reduced_to: 24
  - symbol: H  # 25
    coordinates: [  0.989362516803666,  0.889309933740043,  0.253182421881449 ]
    mass: 1.007940
    reduced_to: 25
  - symbol: H  # 26
    coordinates: [  0.227665974027971,  0.751520684627075,  0.078159076225386 ]
    mass: 1.007940
    reduced_to: 26
  - symbol: H  # 27
    coordinates: [  0.760511431951545,  0.135186663163671,  0.172732007401220 ]
    mass: 1.007940
    reduced_to: 27
  - symbol: H  # 28
    coordinates: [  0.239488568048455,  0.864813336836322,  0.827267992598779 ]
    mass: 1.007940
    reduced_to: 28
  - symbol: H  # 29
    coordinates: [  0.772334025972029,  0.248479315372925,  0.921840923774614 ]
    mass: 1.007940
    reduced_to: 29
  - symbol: H  # 30
    coordinates: [  0.010637483196334,  0.110690066259957,  0.746817578118551 ]
    mass: 1.007940
    reduced_to: 30
  - symbol: H  # 31
    coordinates: [  0.989362516803666,  0.610690066259957,  0.753182421881449 ]
    mass: 1.007940
    reduced_to: 31
  - symbol: H  # 32
    coordinates: [  0.227665974027971,  0.748479315372925,  0.578159076225386 ]
    mass: 1.007940
    reduced_to: 32
  - symbol: H  # 33
    coordinates: [  0.760511431951545,  0.364813336836329,  0.672732007401221 ]
    mass: 1.007940
    reduced_to: 33
  - symbol: H  # 34
    coordinates: [  0.239488568048455,  0.635186663163678,  0.327267992598780 ]
    mass: 1.007940
    reduced_to: 34
  - symbol: H  # 35
    coordinates: [  0.772334025972029,  0.251520684627075,  0.421840923774614 ]
    mass: 1.007940
    reduced_to: 35
  - symbol: H  # 36
    coordinates: [  0.010637483196334,  0.389309933740043,  0.246817578118551 ]
    mass: 1.007940
    reduced_to: 36
  - symbol: H  # 37
    coordinates: [  0.489362516803666,  0.889309933740043,  0.246817578118551 ]
    mass: 1.007940
    reduced_to: 37
  - symbol: H  # 38
    coordinates: [  0.727665974027971,  0.751520684627075,  0.421840923774614 ]
    mass: 1.007940
    reduced_to: 38
  - symbol: H  # 39
    coordinates: [  0.260511431951545,  0.135186663163671,  0.327267992598780 ]
    mass: 1.007940
    reduced_to: 39
  - symbol: H  # 40
    coordinates: [  0.739488568048455,  0.864813336836322,  0.672732007401221 ]
    mass: 1.007940
    reduced_to: 40
  - symbol: H  # 41
    coordinates: [  0.272334025972028,  0.248479315372925,  0.578159076225386 ]
    mass: 1.007940
    reduced_to: 41
  - symbol: H  # 42
    coordinates: [  0.510637483196334,  0.110690066259957,  0.753182421881449 ]
    mass: 1.007940
    reduced_to: 42
  - symbol: H  # 43
    coordinates: [  0.489362516803666,  0.610690066259957,  0.746817578118551 ]
    mass: 1.007940
    reduced_to: 43
  - symbol: H  # 44
    coordinates: [  0.727665974027971,  0.748479315372925,  0.921840923774614 ]
    mass: 1.007940
    reduced_to: 44
  - symbol: H  # 45
    coordinates: [  0.260511431951545,  0.364813336836329,  0.827267992598779 ]
    mass: 1.007940
    reduced_to: 45
  - symbol: H  # 46
    coordinates: [  0.739488568048455,  0.635186663163678,  0.172732007401220 ]
    mass: 1.007940
    reduced_to: 46
  - symbol: H  # 47
    coordinates: [  0.272334025972028,  0.251520684627075,  0.078159076225386 ]
    mass: 1.007940
    reduced_to: 47
  - symbol: H  # 48
    coordinates: [  0.510637483196334,  0.389309933740043,  0.253182421881449 ]
    mass: 1.007940
    reduced_to: 48

supercell:
  lattice:
  - [    13.512296525788658,     0.000000000000000,     0.000000000000000 ] # a
  - [     0.000000000000000,    14.636211467973222,     0.000000000000000 ] # b
  - [     0.000000000000000,     0.000000000000000,    18.575584204374270 ] # c
  points:
  - symbol: C  # 1
    coordinates: [  0.497098279216718,  0.468789376572808,  0.071087048481232 ]
    mass: 12.010700
    reduced_to: 1
  - symbol: C  # 2
    coordinates: [  0.997098279216718,  0.468789376572808,  0.071087048481232 ]
    mass: 12.010700
    reduced_to: 1
  - symbol: C  # 3
    coordinates: [  0.497098279216718,  0.968789376572808,  0.071087048481232 ]
    mass: 12.010700
    reduced_to: 1
  - symbol: C  # 4
    coordinates: [  0.997098279216718,  0.968789376572808,  0.071087048481232 ]
    mass: 12.010700
    reduced_to: 1
  - symbol: C  # 5
    coordinates: [  0.497098279216718,  0.468789376572808,  0.571087048481232 ]
    mass: 12.010700
    reduced_to: 1
  - symbol: C  # 6
    coordinates: [  0.997098279216718,  0.468789376572808,  0.571087048481232 ]
    mass: 12.010700
    reduced_to: 1
  - symbol: C  # 7
    coordinates: [  0.497098279216718,  0.968789376572808,  0.571087048481232 ]
    mass: 12.010700
    reduced_to: 1
  - symbol: C  # 8
    coordinates: [  0.997098279216718,  0.968789376572808,  0.571087048481232 ]
    mass: 12.010700
    reduced_to: 1
  - symbol: C  # 9
    coordinates: [  0.064031419206241,  0.430399809219996,  0.022346214528538 ]
    mass: 12.010700
    reduced_to: 9
  - symbol: C  # 10
    coordinates: [  0.564031419206241,  0.430399809219996,  0.022346214528538 ]
    mass: 12.010700
    reduced_to: 9
  - symbol: C  # 11
    coordinates: [  0.064031419206241,  0.930399809219996,  0.022346214528538 ]
    mass: 12.010700
    reduced_to: 9
  - symbol: C  # 12
    coordinates: [  0.564031419206241,  0.930399809219996,  0.022346214528538 ]
    mass: 12.010700
    reduced_to: 9
  - symbol: C  # 13
    coordinates: [  0.064031419206241,  0.430399809219996,  0.522346214528538 ]
    mass: 12.010700
    reduced_to: 9
  - symbol: C  # 14
    coordinates: [  0.564031419206241,  0.430399809219996,  0.522346214528538 ]
    mass: 12.010700
    reduced_to: 9
  - symbol: C  # 15
    coordinates: [  0.064031419206241,  0.930399809219996,  0.522346214528538 ]
    mass: 12.010700
    reduced_to: 9
  - symbol: C  # 16
    coordinates: [  0.564031419206241,  0.930399809219996,  0.522346214528538 ]
    mass: 12.010700
    reduced_to: 9
  - symbol: C  # 17
    coordinates: [  0.433094113522736,  0.038157738576511,  0.048656853843252 ]
    mass: 12.010700
    reduced_to: 17
  - symbol: C  # 18
    coordinates: [  0.933094113522736,  0.038157738576511,  0.048656853843252 ]
    mass: 12.010700
    reduced_to: 17
  - symbol: C  # 19
    coordinates: [  0.433094113522736,  0.538157738576511,  0.048656853843252 ]
    mass: 12.010700
    reduced_to: 17
  - symbol: C  # 20
    coordinates: [  0.933094113522736,  0.538157738576511,  0.048656853843252 ]
    mass: 12.010700
    reduced_to: 17
  - symbol: C  # 21
    coordinates: [  0.433094113522736,  0.038157738576511,  0.548656853843252 ]
    mass: 12.010700
    reduced_to: 17
  - symbol: C  # 22
    coordinates: [  0.933094113522736,  0.038157738576511,  0.548656853843252 ]
    mass: 12.010700
    reduced_to: 17
  - symbol: C  # 23
    coordinates: [  0.433094113522736,  0.538157738576511,  0.548656853843252 ]
    mass: 12.010700
    reduced_to: 17
  - symbol: C  # 24
    coordinates: [  0.933094113522736,  0.538157738576511,  0.548656853843252 ]
    mass: 12.010700
    reduced_to: 17
  - symbol: C  # 25
    coordinates: [  0.066905886477264,  0.461842261423489,  0.451343146156748 ]
    mass: 12.010700
    reduced_to: 25
  - symbol: C  # 26
    coordinates: [  0.566905886477264,  0.461842261423489,  0.451343146156748 ]
    mass: 12.010700
    reduced_to: 25
  - symbol: C  # 27
    coordinates: [  0.066905886477264,  0.961842261423489,  0.451343146156748 ]
    mass: 12.010700
    reduced_to: 25
  - symbol: C  # 28
    coordinates: [  0.566905886477264,  0.961842261423489,  0.451343146156748 ]
    mass: 12.010700
    reduced_to: 25
  - symbol: C  # 29
    coordinates: [  0.066905886477264,  0.461842261423489,  0.951343146156748 ]
    mass: 12.010700
    reduced_to: 25
  - symbol: C  # 30
    coordinates: [  0.566905886477264,  0.461842261423489,  0.951343146156748 ]
    mass: 12.010700
    reduced_to: 25
  - symbol: C  # 31
    coordinates: [  0.066905886477264,  0.961842261423489,  0.951343146156748 ]
    mass: 12.010700
    reduced_to: 25
  - symbol: C  # 32
    coordinates: [  0.566905886477264,  0.961842261423489,  0.951343146156748 ]
    mass: 12.010700
    reduced_to: 25
  - symbol: C  # 33
    coordinates: [  0.435968580793759,  0.069600190780004,  0.477653785471462 ]
    mass: 12.010700
    reduced_to: 33
  - symbol: C  # 34
    coordinates: [  0.935968580793759,  0.069600190780004,  0.477653785471462 ]
    mass: 12.010700
    reduced_to: 33
  - symbol: C  # 35
    coordinates: [  0.435968580793759,  0.569600190780004,  0.477653785471462 ]
    mass: 12.010700
    reduced_to: 33
  - symbol: C  # 36
    coordinates: [  0.935968580793759,  0.569600190780004,  0.477653785471462 ]
    mass: 12.010700
    reduced_to: 33
  - symbol: C  # 37
    coordinates: [  0.435968580793759,  0.069600190780004,  0.977653785471462 ]
    mass: 12.010700
    reduced_to: 33
  - symbol: C  # 38
    coordinates: [  0.935968580793759,  0.069600190780004,  0.977653785471462 ]
    mass: 12.010700
    reduced_to: 33
  - symbol: C  # 39
    coordinates: [  0.435968580793759,  0.569600190780004,  0.977653785471462 ]
    mass: 12.010700
    reduced_to: 33
  - symbol: C  # 40
    coordinates: [  0.935968580793759,  0.569600190780004,  0.977653785471462 ]
    mass: 12.010700
    reduced_to: 33
  - symbol: C  # 41
    coordinates: [  0.002901720783282,  0.031210623427192,  0.428912951518768 ]
    mass: 12.010700
    reduced_to: 41
  - symbol: C  # 42
    coordinates: [  0.502901720783282,  0.031210623427192,  0.428912951518768 ]
    mass: 12.010700
    reduced_to: 41
  - symbol: C  # 43
    coordinates: [  0.002901720783282,  0.531210623427192,  0.428912951518768 ]
    mass: 12.010700
    reduced_to: 41
  - symbol: C  # 44
    coordinates: [  0.502901720783282,  0.531210623427192,  0.428912951518768 ]
    mass: 12.010700
    reduced_to: 41
  - symbol: C  # 45
    coordinates: [  0.002901720783282,  0.031210623427192,  0.928912951518768 ]
    mass: 12.010700
    reduced_to: 41
  - symbol: C  # 46
    coordinates: [  0.502901720783282,  0.031210623427192,  0.928912951518768 ]
    mass: 12.010700
    reduced_to: 41
  - symbol: C  # 47
    coordinates: [  0.002901720783282,  0.531210623427192,  0.928912951518768 ]
    mass: 12.010700
    reduced_to: 41
  - symbol: C  # 48
    coordinates: [  0.502901720783282,  0.531210623427192,  0.928912951518768 ]
    mass: 12.010700
    reduced_to: 41
  - symbol: C  # 49
    coordinates: [  0.497098279216718,  0.281210623427192,  0.321087048481232 ]
    mass: 12.010700
    reduced_to: 49
  - symbol: C  # 50
    coordinates: [  0.997098279216718,  0.281210623427192,  0.321087048481232 ]
    mass: 12.010700
    reduced_to: 49
  - symbol: C  # 51
    coordinates: [  0.497098279216718,  0.781210623427192,  0.321087048481232 ]
    mass: 12.010700
    reduced_to: 49
  - symbol: C  # 52
    coordinates: [  0.997098279216718,  0.781210623427192,  0.321087048481232 ]
    mass: 12.010700
    reduced_to: 49
  - symbol: C  # 53
    coordinates: [  0.497098279216718,  0.281210623427192,  0.821087048481232 ]
    mass: 12.010700
    reduced_to: 49
  - symbol: C  # 54
    coordinates: [  0.997098279216718,  0.281210623427192,  0.821087048481232 ]
    mass: 12.010700
    reduced_to: 49
  - symbol: C  # 55
    coordinates: [  0.497098279216718,  0.781210623427192,  0.821087048481232 ]
    mass: 12.010700
    reduced_to: 49
  - symbol: C  # 56
    coordinates: [  0.997098279216718,  0.781210623427192,  0.821087048481232 ]
    mass: 12.010700
    reduced_to: 49
  - symbol: C  # 57
    coordinates: [  0.064031419206241,  0.319600190780004,  0.272346214528538 ]
    mass: 12.010700
    reduced_to: 57
  - symbol: C  # 58
    coordinates: [  0.564031419206241,  0.319600190780004,  0.272346214528538 ]
    mass: 12.010700
    reduced_to: 57
  - symbol: C  # 59
    coordinates: [  0.064031419206241,  0.819600190780004,  0.272346214528538 ]
    mass: 12.010700
    reduced_to: 57
  - symbol: C  # 60
    coordinates: [  0.564031419206241,  0.819600190780004,  0.272346214528538 ]
    mass: 12.010700
    reduced_to: 57
  - symbol: C  # 61
    coordinates: [  0.064031419206241,  0.319600190780004,  0.772346214528538 ]
    mass: 12.010700
    reduced_to: 57
  - symbol: C  # 62
    coordinates: [  0.564031419206241,  0.319600190780004,  0.772346214528538 ]
    mass: 12.010700
    reduced_to: 57
  - symbol: C  # 63
    coordinates: [  0.064031419206241,  0.819600190780004,  0.772346214528538 ]
    mass: 12.010700
    reduced_to: 57
  - symbol: C  # 64
    coordinates: [  0.564031419206241,  0.819600190780004,  0.772346214528538 ]
    mass: 12.010700
    reduced_to: 57
  - symbol: C  # 65
    coordinates: [  0.433094113522736,  0.211842261423489,  0.298656853843252 ]
    mass: 12.010700
    reduced_to: 65
  - symbol: C  # 66
    coordinates: [  0.933094113522736,  0.211842261423489,  0.298656853843252 ]
    mass: 12.010700
    reduced_to: 65
  - symbol: C  # 67
    coordinates: [  0.433094113522736,  0.711842261423489,  0.298656853843252 ]
    mass: 12.010700
    reduced_to: 65
  - symbol: C  # 68
    coordinates: [  0.933094113522736,  0.711842261423489,  0.298656853843252 ]
    mass: 12.010700
    reduced_to: 65
  - symbol: C  # 69
    coordinates: [  0.433094113522736,  0.211842261423489,  0.798656853843252 ]
    mass: 12.010700
    reduced_to: 65
  - symbol: C  # 70
    coordinates: [  0.933094113522736,  0.211842261423489,  0.798656853843252 ]
    mass: 12.010700
    reduced_to: 65
  - symbol: C  # 71
    coordinates: [  0.433094113522736,  0.711842261423489,  0.798656853843252 ]
    mass: 12.010700
    reduced_to: 65
  - symbol: C  # 72
    coordinates: [  0.933094113522736,  0.711842261423489,  0.798656853843252 ]
    mass: 12.010700
    reduced_to: 65
  - symbol: C  # 73
    coordinates: [  0.066905886477264,  0.288157738576511,  0.201343146156748 ]
    mass: 12.010700
    reduced_to: 73
  - symbol: C  # 74
    coordinates: [  0.566905886477264,  0.288157738576511,  0.201343146156748 ]
    mass: 12.010700
    reduced_to: 73
  - symbol: C  # 75
    coordinates: [  0.066905886477264,  0.788157738576511,  0.201343146156748 ]
    mass: 12.010700
    reduced_to: 73
  - symbol: C  # 76
    coordinates: [  0.566905886477264,  0.788157738576511,  0.201343146156748 ]
    mass: 12.010700
    reduced_to: 73
  - symbol: C  # 77
    coordinates: [  0.066905886477264,  0.288157738576511,  0.701343146156748 ]
    mass: 12.010700
    reduced_to: 73
  - symbol: C  # 78
    coordinates: [  0.566905886477264,  0.288157738576511,  0.701343146156748 ]
    mass: 12.010700
    reduced_to: 73
  - symbol: C  # 79
    coordinates: [  0.066905886477264,  0.788157738576511,  0.701343146156748 ]
    mass: 12.010700
    reduced_to: 73
  - symbol: C  # 80
    coordinates: [  0.566905886477264,  0.788157738576511,  0.701343146156748 ]
    mass: 12.010700
    reduced_to: 73
  - symbol: C  # 81
    coordinates: [  0.435968580793759,  0.180399809219996,  0.227653785471462 ]
    mass: 12.010700
    reduced_to: 81
  - symbol: C  # 82
    coordinates: [  0.935968580793759,  0.180399809219996,  0.227653785471462 ]
    mass: 12.010700
    reduced_to: 81
  - symbol: C  # 83
    coordinates: [  0.435968580793759,  0.680399809219996,  0.227653785471462 ]
    mass: 12.010700
    reduced_to: 81
  - symbol: C  # 84
    coordinates: [  0.935968580793759,  0.680399809219996,  0.227653785471462 ]
    mass: 12.010700
    reduced_to: 81
  - symbol: C  # 85
    coordinates: [  0.435968580793759,  0.180399809219996,  0.727653785471462 ]
    mass: 12.010700
    reduced_to: 81
  - symbol: C  # 86
    coordinates: [  0.935968580793759,  0.180399809219996,  0.727653785471462 ]
    mass: 12.010700
    reduced_to: 81
  - symbol: C  # 87
    coordinates: [  0.435968580793759,  0.680399809219996,  0.727653785471462 ]
    mass: 12.010700
    reduced_to: 81
  - symbol: C  # 88
    coordinates: [  0.935968580793759,  0.680399809219996,  0.727653785471462 ]
    mass: 12.010700
    reduced_to: 81
  - symbol: C  # 89
    coordinates: [  0.002901720783282,  0.218789376572808,  0.178912951518768 ]
    mass: 12.010700
    reduced_to: 89
  - symbol: C  # 90
    coordinates: [  0.502901720783282,  0.218789376572808,  0.178912951518768 ]
    mass: 12.010700
    reduced_to: 89
  - symbol: C  # 91
    coordinates: [  0.002901720783282,  0.718789376572808,  0.178912951518768 ]
    mass: 12.010700
    reduced_to: 89
  - symbol: C  # 92
    coordinates: [  0.502901720783282,  0.718789376572808,  0.178912951518768 ]
    mass: 12.010700
    reduced_to: 89
  - symbol: C  # 93
    coordinates: [  0.002901720783282,  0.218789376572808,  0.678912951518768 ]
    mass: 12.010700
    reduced_to: 89
  - symbol: C  # 94
    coordinates: [  0.502901720783282,  0.218789376572808,  0.678912951518768 ]
    mass: 12.010700
    reduced_to: 89
  - symbol: C  # 95
    coordinates: [  0.002901720783282,  0.718789376572808,  0.678912951518768 ]
    mass: 12.010700
    reduced_to: 89
  - symbol: C  # 96
    coordinates: [  0.502901720783282,  0.718789376572808,  0.678912951518768 ]
    mass: 12.010700
    reduced_to: 89
  - symbol: C  # 97
    coordinates: [  0.247098279216718,  0.468789376572808,  0.178912951518768 ]
    mass: 12.010700
    reduced_to: 97
  - symbol: C  # 98
    coordinates: [  0.747098279216718,  0.468789376572808,  0.178912951518768 ]
    mass: 12.010700
    reduced_to: 97
  - symbol: C  # 99
    coordinates: [  0.247098279216718,  0.968789376572808,  0.178912951518768 ]
    mass: 12.010700
    reduced_to: 97
  - symbol: C  # 100
    coordinates: [  0.747098279216718,  0.968789376572808,  0.178912951518768 ]
    mass: 12.010700
    reduced_to: 97
  - symbol: C  # 101
    coordinates: [  0.247098279216718,  0.468789376572808,  0.678912951518768 ]
    mass: 12.010700
    reduced_to: 97
  - symbol: C  # 102
    coordinates: [  0.747098279216718,  0.468789376572808,  0.678912951518768 ]
    mass: 12.010700
    reduced_to: 97
  - symbol: C  # 103
    coordinates: [  0.247098279216718,  0.968789376572808,  0.678912951518768 ]
    mass: 12.010700
    reduced_to: 97
  - symbol: C  # 104
    coordinates: [  0.747098279216718,  0.968789376572808,  0.678912951518768 ]
    mass: 12.010700
    reduced_to: 97
  - symbol: C  # 105
    coordinates: [  0.314031419206241,  0.430399809219996,  0.227653785471462 ]
    mass: 12.010700
    reduced_to: 105
  - symbol: C  # 106
    coordinates: [  0.814031419206241,  0.430399809219996,  0.227653785471462 ]
    mass: 12.010700
    reduced_to: 105
  - symbol: C  # 107
    coordinates: [  0.314031419206241,  0.930399809219996,  0.227653785471462 ]
    mass: 12.010700
    reduced_to: 105
  - symbol: C  # 108
    coordinates: [  0.814031419206241,  0.930399809219996,  0.227653785471462 ]
    mass: 12.010700
    reduced_to: 105
  - symbol: C  # 109
    coordinates: [  0.314031419206241,  0.430399809219996,  0.727653785471462 ]
    mass: 12.010700
    reduced_to: 105
  - symbol: C  # 110
    coordinates: [  0.814031419206241,  0.430399809219996,  0.727653785471462 ]
    mass: 12.010700
    reduced_to: 105
  - symbol: C  # 111
    coordinates: [  0.314031419206241,  0.930399809219996,  0.727653785471462 ]
    mass: 12.010700
    reduced_to: 105
  - symbol: C  # 112
    coordinates: [  0.814031419206241,  0.930399809219996,  0.727653785471462 ]
    mass: 12.010700
    reduced_to: 105
  - symbol: C  # 113
    coordinates: [  0.183094113522736,  0.038157738576511,  0.201343146156748 ]
    mass: 12.010700
    reduced_to: 113
  - symbol: C  # 114
    coordinates: [  0.683094113522736,  0.038157738576511,  0.201343146156748 ]
    mass: 12.010700
    reduced_to: 113
  - symbol: C  # 115
    coordinates: [  0.183094113522736,  0.538157738576511,  0.201343146156748 ]
    mass: 12.010700
    reduced_to: 113
  - symbol: C  # 116
    coordinates: [  0.683094113522736,  0.538157738576511,  0.201343146156748 ]
    mass: 12.010700
    reduced_to: 113
  - symbol: C  # 117
    coordinates: [  0.183094113522736,  0.038157738576511,  0.701343146156748 ]
    mass: 12.010700
    reduced_to: 113
  - symbol: C  # 118