================================================================================
| EXCITING BORON started                                                       =
| version hash id:                                                             =
| MPI version using     16 processor(s)                                        =
|                                                                              =
| Date (DD-MM-YYYY) : 09-08-2015                                               =
| Time (hh:mm:ss)   : 22:33:29                                                 =
|                                                                              =
| All units are atomic (Hartree, Bohr, etc.)                                   =
================================================================================
 
********************************************************************************
| Structural optimisation starting from atomic densities                       *
********************************************************************************
 
++++++++++++++++++++++++++++++++++++++++++++++++++++++++++++++++++++++++++++++++
| Starting initialization                                                      +
++++++++++++++++++++++++++++++++++++++++++++++++++++++++++++++++++++++++++++++++
 
 Lattice vectors (cartesian) :
      2.3270000000      4.0163031488     -0.3377810185
     -2.3270000000      4.0163031488     -0.3377810185
      0.0000000000     -0.5511207605      6.0018467674
 
 Reciprocal lattice vectors (cartesian) :
      1.3500613036      0.7882978500      0.0723856052
     -1.3500613036      0.7882978500      0.0723856052
      0.0000000000      0.0887300396      1.0550229820
 
 Unit cell volume                           :     111.3193887285
 Brillouin zone volume                      :       2.2282750227
 
 Species :    1 (C)
     parameters loaded from                 :    C.xml
     name                                   :    carbon
     nuclear charge                         :      -6.00000000
     electronic charge                      :       6.00000000
     atomic mass                            :   21894.16673000
     muffin-tin radius                      :       1.20000000
     # of radial points in muffin-tin       :     250
 
     atomic positions (lattice) :
       1 :   0.00000000  0.00000000  0.00000000
       2 :   0.33333333  0.33333333  0.00000000
 
 Total number of atoms per unit cell        :       2
 
 Spin treatment                             :    spin-unpolarised
 
 Number of Bravais lattice symmetries       :       4
 Number of crystal symmetries               :       4
 
 k-point grid                               :      34   34   24
 Total number of k-points                   :    7159
 k-point set is reduced with crystal symmetries
 
 R^MT_min * |G+k|_max (rgkmax)              :       8.00000000
 Species with R^MT_min                      :       1 (C)
 Maximum |G+k| for APW functions            :       6.66666667
 Maximum |G| for potential and density      :      20.00000000
 
 G-vector grid sizes                        :      30    30    40
 Total number of G-vectors                  :   15053
 
 Maximum angular momentum used for
     APW functions                          :       8
     computing H and O matrix elements      :       8
     potential and density                  :       8
     inner part of muffin-tin               :       2
 
 Total nuclear charge                       :     -12.00000000
 Total electronic charge                    :      12.00000000
 Total core charge                          :       4.00000000
 Total valence charge                       :       8.00000000
 
 Number of empty states                     :       5
 Total number of valence states             :      10
 
 Maximum Hamiltonian size                   :     583
 Maximum number of plane-waves              :     575
 Total number of local-orbitals             :       8
 
 Exchange-correlation type                  :      20
     Perdew-Burke-Ernzerhof, Phys. Rev. Lett. 77, 3865 (1996)
     Generalised gradient approximation (GGA)
 
 Smearing scheme                            :    Gaussian
 Smearing width                             :       0.01000000
 
 Using multisecant Broyden potential mixing
 
++++++++++++++++++++++++++++++++++++++++++++++++++++++++++++++++++++++++++++++++
| Ending initialization                                                        +
++++++++++++++++++++++++++++++++++++++++++++++++++++++++++++++++++++++++++++++++
 
********************************************************************************
| Groundstate module started                                                   *
********************************************************************************
 Output level for this task is set to normal
 
++++++++++++++++++++++++++++++++++++++++++++++++++++++++++++++++++++++++++++++++
| Self-consistent loop started                                                 +
++++++++++++++++++++++++++++++++++++++++++++++++++++++++++++++++++++++++++++++++
 Density and potential initialised from atomic data
 
 
++++++++++++++++++++++++++++++++++++++++++++++++++++++++++++++++++++++++++++++++
| SCF iteration number :    1                                                  +
++++++++++++++++++++++++++++++++++++++++++++++++++++++++++++++++++++++++++++++++
 Total energy                               :       -78.16555488
 _______________________________________________________________
 Fermi energy                               :         0.20998489
 Kinetic energy                             :        74.68771716
 Coulomb energy                             :      -141.93225208
 Exchange energy                            :       -10.50044172
 Correlation energy                         :        -0.42057823
 
 DOS at Fermi energy (states/Ha/cell)       :         1.39547605
 
 Electron charges :
     core                                   :         4.00000000
     core leakage                           :         0.00128291
     valence                                :         8.00000000
     interstitial                           :         4.53855997
     charge in muffin-tin spheres :
                  atom     1     C          :         3.73072002
                  atom     2     C          :         3.73072002
     total charge in muffin-tins            :         7.46144003
     total charge                           :        12.00000000
 
 Wall time (seconds)                        :       138.73
 
++++++++++++++++++++++++++++++++++++++++++++++++++++++++++++++++++++++++++++++++
| SCF iteration number :    2                                                  +
++++++++++++++++++++++++++++++++++++++++++++++++++++++++++++++++++++++++++++++++
 Total energy                               :       -77.44968754
 _______________________________________________________________
 Fermi energy                               :         0.22868392
 Kinetic energy                             :        75.15642843
 Coulomb energy                             :      -141.72041922
 Exchange energy                            :       -10.46392669
 Correlation energy                         :        -0.42177005
 
 DOS at Fermi energy (states/Ha/cell)       :         1.49688016
 
 Electron charges :
     core                                   :         4.00000000
     core leakage                           :         0.00129518
     valence                                :         8.00000000
     interstitial                           :         4.59999043
     charge in muffin-tin spheres :
                  atom     1     C          :         3.70000479
                  atom     2     C          :         3.70000479
     total charge in muffin-tins            :         7.40000957
     total charge                           :        12.00000000
 
 Wall time (seconds)                        :       274.12
 
 RMS change in effective potential (target) :   1.65475      ( 0.100000E-05)
 Absolute change in total energy   (target) :  0.715867      ( 0.100000E-06)
 Charge distance                   (target) :  0.124750E-01  ( 0.100000E-04)
 Abs. change in max-nonIBS-force   (target) :  0.241423E-03  ( 0.250000E-05)
 
++++++++++++++++++++++++++++++++++++++++++++++++++++++++++++++++++++++++++++++++
| SCF iteration number :    3                                                  +
++++++++++++++++++++++++++++++++++++++++++++++++++++++++++++++++++++++++++++++++
 Total energy                               :       -76.94273730
 _______________________________________________________________
 Fermi energy                               :         0.24146329
 Kinetic energy                             :        75.48623030
 Coulomb energy                             :      -141.56869459
 Exchange energy                            :       -10.43758350
 Correlation energy                         :        -0.42268950
 
 DOS at Fermi energy (states/Ha/cell)       :         1.57561992
 
 Electron charges :
     core                                   :         4.00000000
     core leakage                           :         0.00130313
     valence                                :         8.00000000
     interstitial                           :         4.64483636
     charge in muffin-tin spheres :
                  atom     1     C          :         3.67758182
                  atom     2     C          :         3.67758182
     total charge in muffin-tins            :         7.35516364
     total charge                           :        12.00000000
 
 Wall time (seconds)                        :       410.17
 
 RMS change in effective potential (target) :   1.22129      ( 0.100000E-05)
 Absolute change in total energy   (target) :  0.506950      ( 0.100000E-06)
 Charge distance                   (target) :  0.920768E-02  ( 0.100000E-04)
 Abs. change in max-nonIBS-force   (target) :  0.213474E-04  ( 0.250000E-05)
 
++++++++++++++++++++++++++++++++++++++++++++++++++++++++++++++++++++++++++++++++
| SCF iteration number :    4                                                  +
++++++++++++++++++++++++++++++++++++++++++++++++++++++++++++++++++++++++++++++++
 Total energy                               :       -76.69275121
 _______________________________________________________________
 Fermi energy                               :         0.24714049
 Kinetic energy                             :        75.66206702
 Coulomb energy                             :      -141.51005868
 Exchange energy                            :       -10.42141198
 Correlation energy                         :        -0.42334757
 
 DOS at Fermi energy (states/Ha/cell)       :         1.63629993
 
 Electron charges :
     core                                   :         4.00000000
     core leakage                           :         0.00129600
     valence                                :         8.00000000
     interstitial                           :         4.67677546
     charge in muffin-tin spheres :
                  atom     1     C          :         3.66161227
                  atom     2     C          :         3.66161227
     total charge in muffin-tins            :         7.32322454
     total charge                           :        12.00000000
 
 Wall time (seconds)                        :       546.21
 
 RMS change in effective potential (target) :  0.672456E-01  ( 0.100000E-05)
 Absolute change in total energy   (target) :  0.249986      ( 0.100000E-06)
 Charge distance                   (target) :  0.707972E-02  ( 0.100000E-04)
 Abs. change in max-nonIBS-force   (target) :  0.103292E-03  ( 0.250000E-05)
 
++++++++++++++++++++++++++++++++++++++++++++++++++++++++++++++++++++++++++++++++
| SCF iteration number :    5                                                  +
++++++++++++++++++++++++++++++++++++++++++++++++++++++++++++++++++++++++++++++++
 Total energy                               :       -75.96438893
 _______________________________________________________________
 Fermi energy                               :         0.26470059
 Kinetic energy                             :        76.11407758
 Coulomb energy                             :      -141.26890169
 Exchange energy                            :       -10.38486955
 Correlation energy                         :        -0.42469527
 
 DOS at Fermi energy (states/Ha/cell)       :         1.75195958
 
 Electron charges :
     core                                   :         4.00000000
     core leakage                           :         0.00131530
     valence                                :         8.00000000
     interstitial                           :         4.73641181
     charge in muffin-tin spheres :
                  atom     1     C          :         3.63179409
                  atom     2     C          :         3.63179409
     total charge in muffin-tins            :         7.26358819
     total charge                           :        12.00000000
 
 Wall time (seconds)                        :       682.34
 
 RMS change in effective potential (target) :  0.339621E-01  ( 0.100000E-05)
 Absolute change in total energy   (target) :  0.728362      ( 0.100000E-06)
 Charge distance                   (target) :  0.120754E-01  ( 0.100000E-04)
 Abs. change in max-nonIBS-force   (target) :  0.221251E-04  ( 0.250000E-05)
 
++++++++++++++++++++++++++++++++++++++++++++++++++++++++++++++++++++++++++++++++
| SCF iteration number :    6                                                  +
++++++++++++++++++++++++++++++++++++++++++++++++++++++++++++++++++++++++++++++++
 Total energy                               :       -76.20247692
 _______________________________________________________________
 Fermi energy                               :         0.25912630
 Kinetic energy                             :        75.96706108
 Coulomb energy                             :      -141.34831992
 Exchange energy                            :       -10.39697527
 Correlation energy                         :        -0.42424282
 
 DOS at Fermi energy (states/Ha/cell)       :         1.71090370
 
 Electron charges :
     core                                   :         4.00000000
     core leakage                           :         0.00130915
     valence                                :         8.00000000
     interstitial                           :         4.71661756
     charge in muffin-tin spheres :
                  atom     1     C          :         3.64169122
                  atom     2     C          :         3.64169122
     total charge in muffin-tins            :         7.28338244
     total charge                           :        12.00000000
 
 Wall time (seconds)                        :       818.67
 
 RMS change in effective potential (target) :  0.727339E-03  ( 0.100000E-05)
 Absolute change in total energy   (target) :  0.238088      ( 0.100000E-06)
 Charge distance                   (target) :  0.404094E-02  ( 0.100000E-04)
 Abs. change in max-nonIBS-force   (target) :  0.212017E-04  ( 0.250000E-05)
 
++++++++++++++++++++++++++++++++++++++++++++++++++++++++++++++++++++++++++++++++
| SCF iteration number :    7                                                  +
++++++++++++++++++++++++++++++++++++++++++++++++++++++++++++++++++++++++++++++++
 Total energy                               :       -76.20422536
 _______________________________________________________________
 Fermi energy                               :         0.25907327
 Kinetic energy                             :        75.96616924
 Coulomb energy                             :      -141.34910558
 Exchange energy                            :       -10.39704994
 Correlation energy                         :        -0.42423910
 
 DOS at Fermi energy (states/Ha/cell)       :         1.71090736
 
 Electron charges :
     core                                   :         4.00000000
     core leakage                           :         0.00130903
     valence                                :         8.00000000
     interstitial                           :         4.71650945
     charge in muffin-tin spheres :
                  atom     1     C          :         3.64174527
                  atom     2     C          :         3.64174527
     total charge in muffin-tins            :         7.28349055
     total charge                           :        12.00000000
 
 Wall time (seconds)                        :       954.50
 
 RMS change in effective potential (target) :  0.148306E-03  ( 0.100000E-05)
 Absolute change in total energy   (target) :  0.174844E-02  ( 0.100000E-06)
 Charge distance                   (target) :  0.207190E-04  ( 0.100000E-04)
 Abs. change in max-nonIBS-force   (target) :  0.448643E-06  ( 0.250000E-05)
 
++++++++++++++++++++++++++++++++++++++++++++++++++++++++++++++++++++++++++++++++
| SCF iteration number :    8                                                  +
++++++++++++++++++++++++++++++++++++++++++++++++++++++++++++++++++++++++++++++++
 Total energy                               :       -76.20477344
 _______________________________________________________________
 Fermi energy                               :         0.25906072
 Kinetic energy                             :        75.96576918
 Coulomb energy                             :      -141.34922739
 Exchange energy                            :       -10.39707698
 Correlation energy                         :        -0.42423825
 
 DOS at Fermi energy (states/Ha/cell)       :         1.71078092
 
 Electron charges :
     core                                   :         4.00000000
     core leakage                           :         0.00130903
     valence                                :         8.00000000
     interstitial                           :         4.71646150
     charge in muffin-tin spheres :
                  atom     1     C          :         3.64176925
                  atom     2     C          :         3.64176925
     total charge in muffin-tins            :         7.28353850
     total charge                           :        12.00000000
 
 Wall time (seconds)                        :      1090.20
 
 RMS change in effective potential (target) :  0.254463E-04  ( 0.100000E-05)
 Absolute change in total energy   (target) :  0.548072E-03  ( 0.100000E-06)
 Charge distance                   (target) :  0.113854E-04  ( 0.100000E-04)
 Abs. change in max-nonIBS-force   (target) :  0.416648E-06  ( 0.250000E-05)
 
++++++++++++++++++++++++++++++++++++++++++++++++++++++++++++++++++++++++++++++++
| SCF iteration number :    9                                                  +
++++++++++++++++++++++++++++++++++++++++++++++++++++++++++++++++++++++++++++++++
 Total energy                               :       -76.20467535
 _______________________________________________________________
 Fermi energy                               :         0.25906300
 Kinetic energy                             :        75.96582623
 Coulomb energy                             :      -141.34919107
 Exchange energy                            :       -10.39707207
 Correlation energy                         :        -0.42423844
 
 DOS at Fermi energy (states/Ha/cell)       :         1.71079423
 
 Electron charges :
     core                                   :         4.00000000
     core leakage                           :         0.00130903
     valence                                :         8.00000000
     interstitial                           :         4.71646925
     charge in muffin-tin spheres :
                  atom     1     C          :         3.64176537
                  atom     2     C          :         3.64176537
     total charge in muffin-tins            :         7.28353075
     total charge                           :        12.00000000
 
 Wall time (seconds)                        :      1226.90
 
 RMS change in effective potential (target) :  0.106283E-05  ( 0.100000E-05)
 Absolute change in total energy   (target) :  0.980907E-04  ( 0.100000E-06)
 Charge distance                   (target) :  0.151672E-05  ( 0.100000E-04)
 Abs. change in max-nonIBS-force   (target) :  0.274345E-07  ( 0.250000E-05)
 
++++++++++++++++++++++++++++++++++++++++++++++++++++++++++++++++++++++++++++++++
| SCF iteration number :   10                                                  +
++++++++++++++++++++++++++++++++++++++++++++++++++++++++++++++++++++++++++++++++
 Total energy                               :       -76.20467539
 _______________________________________________________________
 Fermi energy                               :         0.25906302
 Kinetic energy                             :        75.96582649
 Coulomb energy                             :      -141.34919136
 Exchange energy                            :       -10.39707208
 Correlation energy                         :        -0.42423844
 
 DOS at Fermi energy (states/Ha/cell)       :         1.71079439
 
 Electron charges :
     core                                   :         4.00000000
     core leakage                           :         0.00130903
     valence                                :         8.00000000
     interstitial                           :         4.71646925
     charge in muffin-tin spheres :
                  atom     1     C          :         3.64176537
                  atom     2     C          :         3.64176537
     total charge in muffin-tins            :         7.28353075
     total charge                           :        12.00000000
 
 Wall time (seconds)                        :      1363.66
 
 RMS change in effective potential (target) :  0.276871E-07  ( 0.100000E-05)
 Absolute change in total energy   (target) :  0.473500E-07  ( 0.100000E-06)
 Charge distance                   (target) :  0.307231E-07  ( 0.100000E-04)
 Abs. change in max-nonIBS-force   (target) :  0.559985E-08  ( 0.250000E-05)
 
++++++++++++++++++++++++++++++++++++++++++++++++++++++++++++++++++++++++++++++++
| Convergence targets achieved. Performing final SCF iteration                 +
++++++++++++++++++++++++++++++++++++++++++++++++++++++++++++++++++++++++++++++++
 Total energy                               :       -76.21513167
 _______________________________________________________________
 Fermi energy                               :         0.25906302
 Kinetic energy                             :        75.96582655
 Coulomb energy                             :      -141.34919135
 Exchange energy                            :       -10.39707207
 Correlation energy                         :        -0.42423844
 DFT-D2 dispersion correction               :        -0.01045636
 
 DOS at Fermi energy (states/Ha/cell)       :         1.71079438
 
 Electron charges :
     core                                   :         4.00000000
     core leakage                           :         0.00130903
     valence                                :         8.00000000
     interstitial                           :         4.71646926
     charge in muffin-tin spheres :
                  atom     1     C          :         3.64176537
                  atom     2     C          :         3.64176537
     total charge in muffin-tins            :         7.28353074
     total charge                           :        12.00000000
 
++++++++++++++++++++++++++++++++++++++++++++++++++++++++++++++++++++++++++++++++
| Self-consistent loop stopped                                                 +
++++++++++++++++++++++++++++++++++++++++++++++++++++++++++++++++++++++++++++++++
 STATE.OUT is written
 
--------------------------------------------------------------------------------
| Writing atomic positions and forces                                          -
--------------------------------------------------------------------------------
 
 Atomic positions (lattice) :
 atom     1   C  :     0.00000000    0.00000000    0.00000000
 atom     2   C  :     0.33333333    0.33333333    0.00000000
 
 Total atomic forces including IBS (cartesian) :
 atom     1   C  :     0.00000000   -0.00003595    0.00008730
 atom     2   C  :     0.00000000    0.00003595   -0.00008730
 
 Atomic force components including IBS (cartesian) :
 atom     1   C  :     0.00000000    0.00013176    0.00002947   HF force
                 :     0.00000000   -0.00013050    0.00008824   core correction
                 :     0.00000000   -0.00001761    0.00000615   IBS correction
                 :     0.00000000   -0.00001960   -0.00003657   DFT-D2 force
 atom     2   C  :     0.00000000   -0.00013176   -0.00002947   HF force
                 :     0.00000000    0.00013050   -0.00008824   core correction
                 :     0.00000000    0.00001761   -0.00000615   IBS correction
                 :     0.00000000    0.00001960    0.00003657   DFT-D2 force
 
********************************************************************************
| Groundstate module stopped                                                   *
********************************************************************************
 
********************************************************************************
| Structure-optimization module started                                        *
********************************************************************************
 Output level for this task is set to normal
 
 Maximum displacement tau_BFGS   is         :         0.3000
 Maximum displacement tau_newton is         :         0.8000
 
++++++++++++++++++++++++++++++++++++++++++++++++++++++++++++++++++++++++++++++++
| Use harmonic method for optimizing atomic positions                          +
++++++++++++++++++++++++++++++++++++++++++++++++++++++++++++++++++++++++++++++++
 
--------------------------------------------------------------------------------
| Optimization step 0: Initialize optimization                                 -
--------------------------------------------------------------------------------
 Maximum force magnitude           (target) :         0.00009441  (  0.00001000)
 Total energy at this optimization step     :       -76.21513167
 
 Atomic positions at this step (lattice) :
 atom     1   C  :     0.00000000    0.00000000    0.00000000
 atom     2   C  :     0.33333333    0.33333333    0.00000000
 
 Total atomic forces including IBS (cartesian) :
 atom     1   C  :     0.00000000   -0.00003595    0.00008730
 atom     2   C  :     0.00000000    0.00003595   -0.00008730
 
--------------------------------------------------------------------------------
| Optimization step    1    (method = harmonic)                                -
--------------------------------------------------------------------------------
 Number of scf iterations                   :         9  (full newton step)
 Maximum force magnitude           (target) :         0.00006126  (  0.00001000)
 Total energy at this optimization step     :       -76.21513170
 
 Atomic positions at this step (lattice) :
 atom     1   C  :     0.00000000    0.00000000    0.00000000
 atom     2   C  :     0.33333894    0.33333894    0.99997736
 
 Total atomic forces including IBS (cartesian) :
 atom     1   C  :     0.00000000    0.00000021    0.00006126
 atom     2   C  :     0.00000000   -0.00000021   -0.00006126
 
 Time spent in this optimization step       :      1333.85 seconds
 
--------------------------------------------------------------------------------
| Optimization step    2    (method = harmonic)                                -
--------------------------------------------------------------------------------
 Number of scf iterations                   :        10  (partial harmonic step)
 Maximum force magnitude           (target) :         0.00001399  (  0.00001000)
 Total energy at this optimization step     :       -76.21513171
 
 Atomic positions at this step (lattice) :
 atom     1   C  :     0.00000000    0.00000000    0.00000000
 atom     2   C  :     0.33333551    0.33333551    0.99992798
 
 Total atomic forces including IBS (cartesian) :
 atom     1   C  :     0.00000000    0.00000947    0.00001029
 atom     2   C  :     0.00000000   -0.00000947   -0.00001029
 
 Time spent in this optimization step       :      1472.87 seconds
 
--------------------------------------------------------------------------------
| Optimization step    3    (method = harmonic)                                -
--------------------------------------------------------------------------------
 Number of scf iterations                   :         6  (partial harmonic step)
 Maximum force magnitude           (target) :         0.00000486  (  0.00001000)
 Total energy at this optimization step     :       -76.21513173
 
 Atomic positions at this step (lattice) :
 atom     1   C  :     0.00000000    0.00000000    0.00000000
 atom     2   C  :     0.33333102    0.33333102    0.99991758
 
 Total atomic forces including IBS (cartesian) :
 atom     1   C  :     0.00000000   -0.00000303    0.00000381
 atom     2   C  :     0.00000000    0.00000303   -0.00000381
 
 Time spent in this optimization step       :       912.81 seconds
 
++++++++++++++++++++++++++++++++++++++++++++++++++++++++++++++++++++++++++++++++
| Force convergence target achieved                                            +
++++++++++++++++++++++++++++++++++++++++++++++++++++++++++++++++++++++++++++++++
 Total energy                               :       -76.21513173
 _______________________________________________________________
 Fermi energy                               :         0.25906332
 Kinetic energy                             :        75.96582625
 Coulomb energy                             :      -141.34919114
 Exchange energy                            :       -10.39707206
 Correlation energy                         :        -0.42423843
 DFT-D2 dispersion correction               :        -0.01045634
 
 DOS at Fermi energy (states/Ha/cell)       :         1.71081085
 
 Electron charges :
     core                                   :         4.00000000
     core leakage                           :         0.00130903
     valence                                :         8.00000000
     interstitial                           :         4.71646936
     charge in muffin-tin spheres :
                  atom     1     C          :         3.64176532
                  atom     2     C          :         3.64176532
     total charge in muffin-tins            :         7.28353064
     total charge                           :        12.00000000
 
 Optimized atomic positions (lattice) :
 atom     1   C  :     0.00000000    0.00000000    0.00000000
 atom     2   C  :     0.33333102    0.33333102    0.99991758
 
 Total atomic forces including IBS (cartesian) :
 atom     1   C  :     0.00000000   -0.00000303    0.00000381
 atom     2   C  :     0.00000000    0.00000303   -0.00000381
 
 Atomic force components including IBS (cartesian) :
 atom     1   C  :     0.00000000    0.00016682   -0.00003051   HF force
                 :     0.00000000   -0.00013229    0.00006412   core correction
                 :     0.00000000   -0.00001797    0.00000638   IBS correction
                 :     0.00000000   -0.00001959   -0.00003617   DFT-D2 force
 atom     2   C  :     0.00000000   -0.00016682    0.00003051   HF force
                 :     0.00000000    0.00013229   -0.00006412   core correction
                 :     0.00000000    0.00001797   -0.00000638   IBS correction
                 :     0.00000000    0.00001959    0.00003617   DFT-D2 force
 
********************************************************************************
| Structure-optimization module stopped                                        *
********************************************************************************
 
 Total time spent (seconds)                 :      5337.94
 
================================================================================
| EXCITING BORON stopped                                                       =
================================================================================
