   2    2    1    2
  2.2707875e+01   2.8317756e-10   2.8317756e-10   2.8317756e-10   5.0000000e-16
            1.000000e-04
  CAR
 DOS and projected DOS file by LOBSTER. Energy is shifted such that the Fermi level lies at 0 eV. 
      8.78836300      -4.27696364   201       5.78333787       1.00000000
-10.06030   0.00000   0.00000   0.00000   0.00000
 -9.99497   0.00000   0.00000   0.00000   0.00000
 -9.92965   0.00000   0.00000   0.00000   0.00000
 -9.86432   0.00000   0.00000   0.00000   0.00000
 -9.79899   0.00000   0.00000   0.00000   0.00000
 -9.73367   0.00000   0.00000   0.00000   0.00000
 -9.66834   0.00000   0.00000   0.00000   0.00000
 -9.60302   0.00000   0.00000   0.00000   0.00000
 -9.53769   0.00000   0.00000   0.00000   0.00000
 -9.47236   0.00000   0.00000   0.00000   0.00000
 -9.40704   0.00000   0.00000   0.00000   0.00000
 -9.34171   0.00000   0.00000   0.00000   0.00000
 -9.27638   0.00000   0.00000   0.00000   0.00000
 -9.21106   0.00000   0.00000   0.00000   0.00000
 -9.14573   0.00000   0.00000   0.00000   0.00000
 -9.08040   0.00000   0.00000   0.00000   0.00000
 -9.01508   0.00000   0.00000   0.00000   0.00000
 -8.94975   0.00000   0.00000   0.00000   0.00000
 -8.88442   0.00000   0.00000   0.00000   0.00000
 -8.81910   0.00000   0.00000   0.00000   0.00000
 -8.75377   0.00000   0.00000   0.00000   0.00000
 -8.68844   0.00000   0.00000   0.00000   0.00000
 -8.62312   0.00000   0.00000   0.00000   0.00000
 -8.55779   0.00000   0.00000   0.00000   0.00000
 -8.49246   0.00000   0.00000   0.00000   0.00000
 -8.42714   0.00000   0.00000   0.00000   0.00000
 -8.36181   0.00000   0.00000   0.00000   0.00000
 -8.29648   0.00000   0.00000   0.00000   0.00000
 -8.23116   0.00000   0.00000   0.00000   0.00000
 -8.16583   0.00000   0.00000   0.00000   0.00000
 -8.10050   0.04160   0.00000   0.00272   0.00000
 -8.03518   0.02334   0.00000   0.00424   0.00000
 -7.96985   0.02781   0.03531   0.00606   0.00231
 -7.90452   0.03257   0.02173   0.00819   0.00373
 -7.83920   0.03761   0.02599   0.01064   0.00542
 -7.77387   0.04295   0.03052   0.01345   0.00742
 -7.70854   0.04858   0.03533   0.01662   0.00973
 -7.64322   0.05449   0.04042   0.02018   0.01237
 -7.57789   0.06070   0.04578   0.02415   0.01536
 -7.51256   0.06688   0.05142   0.02852   0.01872
 -7.44724   0.06503   0.05733   0.03276   0.02246
 -7.38191   0.06836   0.06352   0.03723   0.02661
 -7.31658   0.07157   0.06453   0.04191   0.03083
 -7.25126   0.07467   0.06501   0.04678   0.03507
 -7.18593   0.07765   0.06795   0.05186   0.03951
 -7.12060   0.08052   0.07076   0.05712   0.04413
 -7.05528   0.08327   0.07345   0.06256   0.04893
 -6.98995   0.08591   0.07602   0.06817   0.05390
 -6.92462   0.08844   0.07846   0.07395   0.05902
 -6.85930   0.09184   0.08079   0.07995   0.06430
 -6.79397   0.09593   0.08299   0.08621   0.06972
 -6.72864   0.10023   0.08521   0.09276   0.07529
 -6.66332   0.10475   0.08831   0.09960   0.08106
 -6.59799   0.10948   0.09171   0.10676   0.08705
 -6.53266   0.11444   0.09526   0.11423   0.09327
 -6.46734   0.11961   0.09896   0.12205   0.09974
 -6.40201   0.12499   0.10281   0.13021   0.10645
 -6.33668   0.12928   0.10680   0.13866   0.11343
 -6.27136   0.13346   0.11095   0.14737   0.12068
 -6.20603   0.13797   0.11524   0.15639   0.12821
 -6.14070   0.14244   0.11798   0.16569   0.13591
 -6.07538   0.14686   0.12041   0.17529   0.14378
 -6.01005   0.15125   0.12341   0.18517   0.15184
 -5.94472   0.15559   0.12632   0.19533   0.16009
 -5.87940   0.16523   0.12912   0.20613   0.16853
 -5.81407   0.17506   0.13182   0.21756   0.17714
 -5.74874   0.18343   0.13442   0.22954   0.18592
 -5.68342   0.19218   0.13692   0.24210   0.19487
 -5.61809   0.20132   0.14198   0.25525   0.20414
 -5.55276   0.21085   0.14667   0.26902   0.21372
 -5.48744   0.22077   0.15090   0.28345   0.22358
 -5.42211   0.23107   0.15526   0.29854   0.23372
 -5.35678   0.24151   0.15975   0.31432   0.24416
 -5.29146   0.25215   0.16437   0.33079   0.25490
 -5.22613   0.26666   0.16912   0.34821   0.26595
 -5.16080   0.29090   0.17400   0.36721   0.27731
 -5.09548   0.31873   0.17894   0.38804   0.28900
 -5.03015   0.50641   0.18382   0.42112   0.30101
 -4.96482   0.50639   0.18876   0.45420   0.31334
 -4.89950   0.55621   0.19377   0.49053   0.32600
 -4.83417   0.71271   0.19885   0.53709   0.33899
 -4.76884   1.31931   0.20430   0.62328   0.35234
 -4.70352   0.73417   0.21177   0.67124   0.36617
 -4.63819   0.86953   0.35107   0.72804   0.38911
 -4.57286   0.90933   0.29290   0.78745   0.40824
 -4.50754   1.00889   0.30605   0.85335   0.42823
 -4.44221   1.12648   0.31868   0.92694   0.44905
 -4.37688   1.24828   0.33076   1.00849   0.47066
 -4.31156   1.32870   0.33853   1.09529   0.49277
 -4.24623   1.47316   0.33421   1.19153   0.51461
 -4.18090   2.61350   0.33892   1.36226   0.53675
 -4.11558   2.73118   0.34250   1.54068   0.55912
 -4.05025   2.01500   0.34493   1.67231   0.58165
 -3.98492   1.55995   0.34621   1.77421   0.60427
 -3.91960   1.39860   0.34633   1.86558   0.62690
 -3.85427   1.28678   0.39034   1.94964   0.65240
 -3.78894   1.36886   0.41170   2.03906   0.67929
 -3.72362   1.24495   0.41096   2.12039   0.70614
 -3.65829   0.83666   0.40598   2.17505   0.73266
 -3.59296   0.64803   0.43146   2.21738   0.76084
 -3.52764   0.63025   0.31071   2.25856   0.78114
 -3.46231   0.58931   0.29316   2.29705   0.80029
 -3.39698   0.98417   0.45669   2.36135   0.83013
 -3.33166   2.80027   0.44287   2.54428   0.85906
 -3.26633   4.28543   0.71783   2.82423   0.90595
 -3.20101   3.73412   0.81467   3.06817   0.95917
 -3.13568   3.06688   1.21787   3.26852   1.03873
 -3.07035   1.63232   0.89144   3.37515   1.09697
 -3.00503   1.40269   0.91286   3.46678   1.15660
 -2.93970   1.82856   0.91577   3.58624   1.21642
 -2.87437   1.84229   1.01201   3.70659   1.28254
 -2.80905   1.99556   1.11374   3.83695   1.35529
 -2.74372   2.16371   1.12108   3.97830   1.42853
 -2.67839   2.20195   1.32881   4.12214   1.51534
 -2.61307   2.29110   1.42779   4.27181   1.60861
 -2.54774   3.08600   1.46580   4.47341   1.70436
 -2.48241   3.63155   1.52436   4.71065   1.80394
 -2.41709   3.25783   1.06123   4.92347   1.87327
 -2.35176   3.14458   1.11680   5.12890   1.94623
 -2.28643   1.84291   0.85969   5.24929   2.00239
 -2.22111   1.37825   0.78017   5.33932   2.05335
 -2.15578   1.29515   0.62946   5.42393   2.09448
 -2.09045   1.18529   0.45531   5.50136   2.12422
 -2.02513   1.14544   0.42868   5.57619   2.15222
 -1.95980   1.04091   0.39326   5.64419   2.17791
 -1.89447   0.94241   0.39627   5.70576   2.20380
 -1.82915   1.15961   0.93429   5.78151   2.26483
 -1.76382   0.96999   1.80243   5.84488   2.38258
 -1.69849   0.89250   1.94910   5.90318   2.50991
 -1.63317   0.70445   2.35518   5.94920   2.66376
 -1.56784   0.65740   2.94486   5.99214   2.85614
 -1.50251   0.98881   3.04427   6.05674   3.05501
 -1.43719   1.49329   2.84575   6.15429   3.24092
 -1.37186   2.46567   3.03493   6.31537   3.43918
 -1.30653   2.97087   2.32243   6.50944   3.59090
 -1.24121   2.67830   2.16230   6.68441   3.73215
 -1.17588   2.93899   1.87260   6.87640   3.85448
 -1.11055   3.45716   1.95668   7.10225   3.98231
 -1.04523   4.04025   2.08134   7.36618   4.11827
 -0.97990   5.04130   2.14803   7.69551   4.25860
 -0.91457   5.39908   2.19323   8.04822   4.40187
 -0.84925   4.10154   2.27426   8.31616   4.55044
 -0.78392   4.58977   3.23660   8.61599   4.76188
 -0.71859   3.30680   2.61694   8.83201   4.93284
 -0.65327   2.94622   2.48290   9.02448   5.09504
 -0.58794   2.70990   2.53848   9.20151   5.26087
 -0.52261   2.57295   2.10379   9.36959   5.39830
 -0.45729   1.67777   1.87303   9.47919   5.52066
 -0.39196   1.66037   1.23203   9.58766   5.60114
 -0.32663   1.58509   0.74334   9.69121   5.64970
 -0.26131   1.35941   0.56204   9.78001   5.68642
 -0.19598   1.40419   0.54841   9.87174   5.72224
 -0.13065   1.50591   0.53632   9.97012   5.75728
 -0.06533   1.57356   0.53444  10.07292   5.79219
  0.00000   1.44898   0.61705  10.16757   5.83250
  0.06533   1.93308   0.58148  10.29385   5.87049
  0.13065   1.90650   0.53637  10.41840   5.90553
  0.19598   0.70422   0.37781  10.46440   5.93021
  0.26131   0.55445   0.46428  10.50062   5.96054
  0.32663   0.50954   0.41687  10.53391   5.98777
  0.39196   0.37600   0.51334  10.55847   6.02131
  0.45729   0.33907   0.48731  10.58062   6.05314
  0.52261   0.31377   0.43213  10.60112   6.08137
  0.58794   0.29328   0.56156  10.62028   6.11805
  0.65327   0.27569   0.70376  10.63829   6.16403
  0.71859   0.26314   0.84146  10.65548   6.21900
  0.78392   0.25168   1.03202  10.67192   6.28642
  0.84925   0.24031   1.30590  10.68762   6.37173
  0.91457   0.29797   1.50266  10.70709   6.46989
  0.97990   0.18478   1.79579  10.71916   6.58720
  1.04523   0.17628   1.79541  10.73067   6.70449
  1.11055   0.16818   1.98160  10.74166   6.83394
  1.17588   0.26619   2.20769  10.75905   6.97816
  1.24121   0.22340   2.39466  10.77364   7.13460
  1.30653   0.22779   2.66645  10.78852   7.30879
  1.37186   0.23298   3.08205  10.80374   7.51013
  1.43719   0.23898   3.06045  10.81935   7.71006
  1.50251   0.24555   2.92183  10.83540   7.90093
  1.56784   0.24996   2.64759  10.85172   8.07389
  1.63317   0.24597   2.29359  10.86779   8.22372
  1.69849   0.36057   2.09217  10.89135   8.36040
  1.76382   0.36280   2.58177  10.91505   8.52906
  1.82915   0.39140   3.37167  10.94062   8.74931
  1.89447   0.42152   4.88320  10.96815   9.06832
  1.95980   0.45315   8.95069  10.99776   9.65304
  2.02513   0.34060   2.28803  11.02001   9.80251
  2.09045   0.29910   1.39327  11.03955   9.89352
  2.15578   0.29557   1.49216  11.05885   9.99100
  2.22111   0.29182   1.62728  11.07792  10.09731
  2.28643   0.28784   2.84969  11.09672  10.28347
  2.35176   0.28386   2.62818  11.11526  10.45516
  2.41709   0.28206   1.18154  11.13369  10.53234
  2.48241   0.28067   0.64658  11.15203  10.57458
  2.54774   0.27839   0.51055  11.17021  10.60793
  2.61307   0.27627   0.42781  11.18826  10.63588
  2.67839   0.27421   0.37457  11.20617  10.66035
  2.74372   0.27221   0.41511  11.22395  10.68747
  2.80905   0.27041   0.26603  11.24162  10.70485
  2.87437   0.26950   0.24824  11.25922  10.72106
  2.93970   0.26869   0.23160  11.27678  10.73619
  3.00503   0.26779   0.21612  11.29427  10.75031
      3.00502513     -10.06030151   201       5.78333787       1.00000000; Z= 26; 4s 3d_xy 3d_yz 3d_z^2 3d_xz 3d_x^2-y^2 
-10.06030   0.00000   0.00000   0.00000   0.00000   0.00000   0.00000   0.00000   0.00000   0.00000   0.00000   0.00000   0.00000
 -9.99497   0.00000   0.00000   0.00000   0.00000   0.00000   0.00000   0.00000   0.00000   0.00000   0.00000   0.00000   0.00000
 -9.92965   0.00000   0.00000   0.00000   0.00000   0.00000   0.00000   0.00000   0.00000   0.00000   0.00000   0.00000   0.00000
 -9.86432   0.00000   0.00000   0.00000   0.00000   0.00000   0.00000   0.00000   0.00000   0.00000   0.00000   0.00000   0.00000
 -9.79899   0.00000   0.00000   0.00000   0.00000   0.00000   0.00000   0.00000   0.00000   0.00000   0.00000   0.00000   0.00000
 -9.73367   0.00000   0.00000   0.00000   0.00000   0.00000   0.00000   0.00000   0.00000   0.00000   0.00000   0.00000   0.00000
 -9.66834   0.00000   0.00000   0.00000   0.00000   0.00000   0.00000   0.00000   0.00000   0.00000   0.00000   0.00000   0.00000
 -9.60302   0.00000   0.00000   0.00000   0.00000   0.00000   0.00000   0.00000   0.00000   0.00000   0.00000   0.00000   0.00000
 -9.53769   0.00000   0.00000   0.00000   0.00000   0.00000   0.00000   0.00000   0.00000   0.00000   0.00000   0.00000   0.00000
 -9.47236   0.00000   0.00000   0.00000   0.00000   0.00000   0.00000   0.00000   0.00000   0.00000   0.00000   0.00000   0.00000
 -9.40704   0.00000   0.00000   0.00000   0.00000   0.00000   0.00000   0.00000   0.00000   0.00000   0.00000   0.00000   0.00000
 -9.34171   0.00000   0.00000   0.00000   0.00000   0.00000   0.00000   0.00000   0.00000   0.00000   0.00000   0.00000   0.00000
 -9.27638   0.00000   0.00000   0.00000   0.00000   0.00000   0.00000   0.00000   0.00000   0.00000   0.00000   0.00000   0.00000
 -9.21106   0.00000   0.00000   0.00000   0.00000   0.00000   0.00000   0.00000   0.00000   0.00000   0.00000   0.00000   0.00000
 -9.14573   0.00000   0.00000   0.00000   0.00000   0.00000   0.00000   0.00000   0.00000   0.00000   0.00000   0.00000   0.00000
 -9.08040   0.00000   0.00000   0.00000   0.00000   0.00000   0.00000   0.00000   0.00000   0.00000   0.00000   0.00000   0.00000
 -9.01508   0.00000   0.00000   0.00000   0.00000   0.00000   0.00000   0.00000   0.00000   0.00000   0.00000   0.00000   0.00000
 -8.94975   0.00000   0.00000   0.00000   0.00000   0.00000   0.00000   0.00000   0.00000   0.00000   0.00000   0.00000   0.00000
 -8.88442   0.00000   0.00000   0.00000   0.00000   0.00000   0.00000   0.00000   0.00000   0.00000   0.00000   0.00000   0.00000
 -8.81910   0.00000   0.00000   0.00000   0.00000   0.00000   0.00000   0.00000   0.00000   0.00000   0.00000   0.00000   0.00000
 -8.75377   0.00000   0.00000   0.00000   0.00000   0.00000   0.00000   0.00000   0.00000   0.00000   0.00000   0.00000   0.00000
 -8.68844   0.00000   0.00000   0.00000   0.00000   0.00000   0.00000   0.00000   0.00000   0.00000   0.00000   0.00000   0.00000
 -8.62312   0.00000   0.00000   0.00000   0.00000   0.00000   0.00000   0.00000   0.00000   0.00000   0.00000   0.00000   0.00000
 -8.55779   0.00000   0.00000   0.00000   0.00000   0.00000   0.00000   0.00000   0.00000   0.00000   0.00000   0.00000   0.00000
 -8.49246   0.00000   0.00000   0.00000   0.00000   0.00000   0.00000   0.00000   0.00000   0.00000   0.00000   0.00000   0.00000
 -8.42714   0.00000   0.00000   0.00000   0.00000   0.00000   0.00000   0.00000   0.00000   0.00000   0.00000   0.00000   0.00000
 -8.36181   0.00000   0.00000   0.00000   0.00000   0.00000   0.00000   0.00000   0.00000   0.00000   0.00000   0.00000   0.00000
 -8.29648   0.00000   0.00000   0.00000   0.00000   0.00000   0.00000   0.00000   0.00000   0.00000   0.00000   0.00000   0.00000
 -8.23116   0.00000   0.00000   0.00000   0.00000   0.00000   0.00000   0.00000   0.00000   0.00000   0.00000   0.00000   0.00000
 -8.16583   0.00000   0.00000   0.00000   0.00000   0.00000   0.00000   0.00000   0.00000   0.00000   0.00000   0.00000   0.00000
 -8.10050   0.02078   0.00000   0.00001   0.00000   0.00001   0.00000   0.00000   0.00000   0.00001   0.00000   0.00000   0.00000
 -8.03518   0.01163   0.00000   0.00001   0.00000   0.00001   0.00000   0.00001   0.00000   0.00001   0.00000   0.00001   0.00000
 -7.96985   0.01385   0.01765   0.00001   0.00000   0.00001   0.00000   0.00001   0.00000   0.00001   0.00000   0.00001   0.00000
 -7.90452   0.01620   0.01085   0.00002   0.00000   0.00002   0.00000   0.00001   0.00000   0.00002   0.00000   0.00001   0.00000
 -7.83920   0.01870   0.01296   0.00002   0.00001   0.00002   0.00001   0.00002   0.00001   0.00002   0.00001   0.00002   0.00001
 -7.77387   0.02134   0.01522   0.00003   0.00001   0.00003   0.00001   0.00002   0.00001   0.00003   0.00001   0.00002   0.00001
 -7.70854   0.02413   0.01761   0.00004   0.00001   0.00004   0.00001   0.00003   0.00001   0.00004   0.00001   0.00003   0.00001
 -7.64322   0.02705   0.02013   0.00004   0.00002   0.00004   0.00002   0.00003   0.00001   0.00004   0.00002   0.00003   0.00001
 -7.57789   0.03012   0.02280   0.00005   0.00002   0.00005   0.00002   0.00004   0.00001   0.00005   0.00002   0.00004   0.00001
 -7.51256   0.03317   0.02560   0.00006   0.00002   0.00006   0.00002   0.00004   0.00002   0.00006   0.00002   0.00004   0.00002
 -7.44724   0.03207   0.02854   0.00009   0.00003   0.00009   0.00003   0.00008   0.00002   0.00009   0.00003   0.00008   0.00002
 -7.38191   0.03363   0.03161   0.00012   0.00003   0.00012   0.00003   0.00010   0.00002   0.00012   0.00003   0.00010   0.00002
 -7.31658   0.03512   0.03205   0.00014   0.00005   0.00014   0.00005   0.00012   0.00004   0.00014   0.00005   0.00012   0.00004
 -7.25126   0.03654   0.03222   0.00017   0.00006   0.00017   0.00006   0.00015   0.00005   0.00017   0.00006   0.00015   0.00005
 -7.18593   0.03790   0.03363   0.00019   0.00007   0.00019   0.00007   0.00017   0.00006   0.00019   0.00007   0.00017   0.00006
 -7.12060   0.03919   0.03497   0.00022   0.00009   0.00022   0.00009   0.00020   0.00007   0.00022   0.00009   0.00020   0.00007
 -7.05528   0.04041   0.03625   0.00025   0.00010   0.00025   0.00010   0.00023   0.00009   0.00025   0.00010   0.00023   0.00009
 -6.98995   0.04157   0.03746   0.00029   0.00012   0.00029   0.00012   0.00026   0.00010   0.00029   0.00012   0.00026   0.00010
 -6.92462   0.04267   0.03861   0.00032   0.00013   0.00032   0.00013   0.00030   0.00011   0.00032   0.00013   0.00030   0.00011
 -6.85930   0.04415   0.03970   0.00037   0.00015   0.00037   0.00015   0.00034   0.00013   0.00037   0.00015   0.00034   0.00013
 -6.79397   0.04592   0.04071   0.00043   0.00016   0.00043   0.00016   0.00038   0.00015   0.00043   0.00016   0.00038   0.00014
 -6.72864   0.04777   0.04174   0.00049   0.00018   0.00049   0.00018   0.00043   0.00016   0.00049   0.00018   0.00043   0.00016
 -6.66332   0.04971   0.04317   0.00056   0.00021   0.00056   0.00021   0.00049   0.00018   0.00056   0.00021   0.00049   0.00018
 -6.59799   0.05173   0.04475   0.00064   0.00023   0.00064   0.00023   0.00054   0.00020   0.00064   0.00023   0.00054   0.00020
 -6.53266   0.05382   0.04638   0.00073   0.00027   0.00073   0.00027   0.00060   0.00023   0.00073   0.00027   0.00060   0.00023
 -6.46734   0.05600   0.04808   0.00082   0.00030   0.00082   0.00030   0.00067   0.00025   0.00082   0.00030   0.00067   0.00025
 -6.40201   0.05826   0.04985   0.00092   0.00034   0.00092   0.00034   0.00073   0.00027   0.00092   0.00034   0.00073   0.00027
 -6.33668   0.05976   0.05167   0.00104   0.00038   0.00104   0.00038   0.00088   0.00030   0.00104   0.00038   0.00088   0.00030
 -6.27136   0.06114   0.05356   0.00117   0.00042   0.00117   0.00042   0.00104   0.00033   0.00117   0.00042   0.00104   0.00033
 -6.20603   0.06268   0.05552   0.00131   0.00046   0.00131   0.00046   0.00119   0.00035   0.00131   0.00046   0.00119   0.00035
 -6.14070   0.06416   0.05662   0.00145   0.00051   0.00145   0.00051   0.00136   0.00041   0.00145   0.00051   0.00136   0.00041
 -6.07538   0.06558   0.05754   0.00160   0.00057   0.00160   0.00057   0.00153   0.00048   0.00160   0.00057   0.00153   0.00048
 -6.01005   0.06692   0.05877   0.00175   0.00062   0.00175   0.00062   0.00172   0.00053   0.00175   0.00062   0.00172   0.00053
 -5.94472   0.06821   0.05992   0.00192   0.00068   0.00192   0.00068   0.00192   0.00059   0.00192   0.00068   0.00192   0.00059
 -5.87940   0.07127   0.06102   0.00228   0.00074   0.00228   0.00074   0.00225   0.00066   0.00228   0.00074   0.00225   0.00066
 -5.81407   0.07425   0.06205   0.00268   0.00080   0.00268   0.00080   0.00261   0.00073   0.00268   0.00080   0.00261   0.00073
 -5.74874   0.07663   0.06302   0.00306   0.00087   0.00306   0.00087   0.00295   0.00080   0.00306   0.00087   0.00295   0.00080
 -5.68342   0.07904   0.06393   0.00347   0.00093   0.00347   0.00093   0.00332   0.00087   0.00347   0.00093   0.00332   0.00087
 -5.61809   0.08149   0.06579   0.00392   0.00107   0.00392   0.00107   0.00371   0.00099   0.00392   0.00107   0.00371   0.00099
 -5.55276   0.08398   0.06751   0.00440   0.00121   0.00439   0.00121   0.00413   0.00110   0.00440   0.00121   0.00413   0.00110
 -5.48744   0.08651   0.06904   0.00491   0.00133   0.00491   0.00133   0.00457   0.00121   0.00491   0.00133   0.00457   0.00121
 -5.42211   0.08908   0.07059   0.00546   0.00147   0.00546   0.00147   0.00504   0.00132   0.00546   0.00147   0.00504   0.00132
 -5.35678   0.09160   0.07217   0.00604   0.00161   0.00604   0.00161   0.00552   0.00144   0.00604   0.00161   0.00552   0.00144
 -5.29146   0.09405   0.07378   0.00665   0.00176   0.00665   0.00176   0.00603   0.00156   0.00665   0.00176   0.00603   0.00156
 -5.22613   0.09731   0.07542   0.00753   0.00192   0.00752   0.00192   0.00673   0.00168   0.00752   0.00192   0.00672   0.00168
 -5.16080   0.10259   0.07709   0.00902   0.00209   0.00902   0.00210   0.00790   0.00181   0.00902   0.00209   0.00790   0.00181
 -5.09548   0.10843   0.07876   0.01080   0.00227   0.01079   0.00227   0.00928   0.00195   0.01080   0.00227   0.00927   0.00195
 -5.03015   0.17478   0.08039   0.01423   0.00245   0.01423   0.00245   0.01787   0.00208   0.01423   0.00245   0.01786   0.00208
 -4.96482   0.16486   0.08201   0.01735   0.00264   0.01735   0.00264   0.01814   0.00222   0.01735   0.00264   0.01814   0.00222
 -4.89950   0.17442   0.08365   0.02077   0.00283   0.02077   0.00283   0.02069   0.00237   0.02077   0.00283   0.02069   0.00237
 -4.83417   0.20749   0.08528   0.03051   0.00304   0.03048   0.00304   0.02870   0.00252   0.03049   0.00304   0.02869   0.00252
 -4.76884   0.26853   0.08701   0.08420   0.00326   0.08419   0.00326   0.06928   0.00268   0.08419   0.00326   0.06928   0.00268
 -4.70352   0.14596   0.08932   0.04824   0.00359   0.04820   0.00359   0.03825   0.00290   0.04821   0.00359   0.03823   0.00290
 -4.63819   0.13547   0.14931   0.04916   0.00451   0.04914   0.00452   0.07617   0.00634   0.04915   0.00452   0.07567   0.00634
 -4.57286   0.12797   0.12157   0.05367   0.00495   0.05365   0.00495   0.08350   0.00501   0.05365   0.00495   0.08223   0.00501
 -4.50754   0.12186   0.12553   0.05872   0.00556   0.05870   0.00557   0.10429   0.00540   0.05870   0.00556   0.10218   0.00540
 -4.44221   0.11969   0.12912   0.06309   0.00621   0.06306   0.00621   0.12862   0.00580   0.06307   0.00621   0.12571   0.00580
 -4.37688   0.12096   0.13234   0.06726   0.00688   0.06723   0.00689   0.15241   0.00619   0.06723   0.00689   0.14906   0.00619
 -4.31156   0.11270   0.13303   0.06958   0.00774   0.06953   0.00774   0.17243   0.00650   0.06953   0.00774   0.17058   0.00650
 -4.24623   0.11831   0.12699   0.07456   0.00896   0.07446   0.00897   0.19801   0.00661   0.07448   0.00897   0.19675   0.00661
 -4.18090   0.28915   0.12636   0.10036   0.00977   0.10022   0.00978   0.36039   0.00689   0.10025   0.00978   0.35637   0.00689
 -4.11558   0.24928   0.12527   0.10192   0.01056   0.10174   0.01057   0.40889   0.00715   0.10178   0.01056   0.40198   0.00715
 -4.05025   0.15953   0.12373   0.09976   0.01132   0.09958   0.01133   0.27771   0.00738   0.09961   0.01132   0.27132   0.00738
 -3.98492   0.11278   0.12174   0.09167   0.01206   0.09153   0.01206   0.19820   0.00759   0.09154   0.01206   0.19425   0.00759
 -3.91960   0.08845   0.11929   0.08757   0.01277   0.08747   0.01278   0.17516   0.00778   0.08748   0.01277   0.17317   0.00778
 -3.85427   0.07282   0.12316   0.08563   0.01728   0.08558   0.01731   0.15690   0.01006   0.08556   0.01730   0.15688   0.01006
 -3.78894   0.07034   0.12296   0.10693   0.02001   0.10685   0.02002   0.14595   0.01142   0.10684   0.02002   0.14752   0.01142
 -3.72362   0.04625   0.11836   0.10665   0.02114   0.10627   0.02116   0.12629   0.01183   0.10633   0.02116   0.13068   0.01183
 -3.65829   0.02654   0.11271   0.06705   0.02203   0.06535   0.02204   0.09265   0.01209   0.06572   0.02204   0.10100   0.01209
 -3.59296   0.01862   0.10996   0.05085   0.02585   0.04814   0.02584   0.07618   0.01412   0.04877   0.02584   0.08145   0.01411
 -3.52764   0.01587   0.08486   0.04785   0.01776   0.04484   0.01776   0.07804   0.00861   0.04554   0.01776   0.08299   0.00861
 -3.46231   0.01507   0.07816   0.03767   0.01739   0.03464   0.01740   0.08384   0.00812   0.03535   0.01740   0.08807   0.00811
 -3.39698   0.01552   0.09010   0.09736   0.03299   0.09444   0.03306   0.09310   0.01956   0.09513   0.03304   0.09653   0.01959
 -3.33166   0.01703   0.08565   0.36306   0.03223   0.36731   0.03226   0.14197   0.01952   0.36636   0.03225   0.14441   0.01953
 -3.26633   0.02319   0.16094   0.52580   0.03827   0.52367   0.03830   0.27234   0.04156   0.52397   0.03829   0.27375   0.04156
 -3.20101   0.02765   0.17147   0.45082   0.04565   0.45094   0.04573   0.24272   0.04938   0.45050   0.04571   0.24444   0.04940
 -3.13568   0.03189   0.26423   0.36048   0.06119   0.36069   0.06116   0.20934   0.08061   0.36027   0.06117   0.21076   0.08057
 -3.07035   0.01670   0.17553   0.20239   0.05054   0.20175   0.05057   0.09654   0.05927   0.20156   0.05056   0.09721   0.05926
 -3.00503   0.02211   0.17406   0.15950   0.05250   0.16167   0.05252   0.09919   0.06242   0.16050   0.05252   0.09837   0.06240
 -2.93970   0.03988   0.16942   0.19943   0.05346   0.20240   0.05347   0.13632   0.06404   0.20133   0.05347   0.13492   0.06402
 -2.87437   0.04293   0.16385   0.20836   0.05458   0.21117   0.05459   0.12408   0.09088   0.21021   0.05459   0.12440   0.08752
 -2.80905   0.05176   0.16638   0.23071   0.05937   0.23327   0.05942   0.12323   0.11147   0.23249   0.05941   0.12632   0.10081
 -2.74372   0.06126   0.14524   0.25109   0.05808   0.25304   0.05804   0.13006   0.12606   0.25247   0.05805   0.13394   0.11506
 -2.67839   0.07411   0.15372   0.25809   0.05800   0.25918   0.05799   0.12411   0.16921   0.25885   0.05800   0.12664   0.16749
 -2.61307   0.09613   0.15285   0.28224   0.06170   0.28232   0.06166   0.10079   0.18312   0.28224   0.06169   0.10183   0.19287
 -2.54774   0.13120   0.14232   0.37278   0.06451   0.37231   0.06442   0.14694   0.19546   0.37236   0.06446   0.14742   0.20174
 -2.48241   0.14843   0.13598   0.42260   0.06677   0.42224   0.06663   0.19987   0.21192   0.42230   0.06668   0.20034   0.21420
 -2.41709   0.12256   0.09155   0.38934   0.05993   0.38998   0.05975   0.16834   0.12967   0.38983   0.05981   0.16887   0.12990
 -2.35176   0.09498   0.08337   0.40506   0.07991   0.40612   0.07951   0.12991   0.11876   0.40587   0.07964   0.13036   0.11721
 -2.28643   0.07761   0.05725   0.22235   0.05460   0.22588   0.05463   0.08513   0.10566   0.22505   0.05468   0.08544   0.10302
 -2.22111   0.07462   0.04699   0.15231   0.04768   0.15244   0.04834   0.07857   0.10101   0.15241   0.04824   0.07877   0.09782
 -2.15578   0.07191   0.03161   0.14113   0.03678   0.14116   0.03795   0.07604   0.08613   0.14114   0.03773   0.07620   0.08453
 -2.09045   0.06820   0.01494   0.12507   0.02318   0.12511   0.02481   0.07452   0.06881   0.12509   0.02449   0.07466   0.07142
 -2.02513   0.06396   0.01049   0.12084   0.01814   0.12087   0.01994   0.07304   0.07087   0.12086   0.01958   0.07316   0.07533
 -1.95980   0.05277   0.00936   0.11074   0.00996   0.11079   0.01175   0.06764   0.07458   0.11077   0.01139   0.06775   0.07959
 -1.89447   0.03685   0.00951   0.10520   0.00963   0.10525   0.01149   0.05929   0.07593   0.10523   0.01111   0.05938   0.08046
 -1.82915   0.03177   0.01136   0.13416   0.09831   0.13421   0.09671   0.07267   0.08035   0.13419   0.09693   0.07282   0.08347
 -1.76382   0.02827   0.04401   0.10275   0.21318   0.10283   0.21263   0.07407   0.10785   0.10280   0.21273   0.07429   0.11082
 -1.69849   0.02457   0.02152   0.09042   0.23085   0.09048   0.23059   0.07510   0.12937   0.09045   0.23062   0.07524   0.13160
 -1.63317   0.02149   0.03093   0.07302   0.28226   0.07306   0.28223   0.05579   0.14868   0.07305   0.28288   0.05583   0.15061
 -1.56784   0.01867   0.04512   0.06672   0.35661   0.06676   0.35712   0.05493   0.17667   0.06675   0.35762   0.05487   0.17929
 -1.50251   0.01612   0.06793   0.11654   0.35851   0.11656   0.35691   0.06439   0.18873   0.11656   0.35795   0.06423   0.19211
 -1.43719   0.01977   0.07748   0.16265   0.33214   0.16261   0.32915   0.12067   0.17538   0.16261   0.33027   0.11834   0.17845
 -1.37186   0.01100   0.09085   0.24912   0.34681   0.24857   0.34349   0.24401   0.19526   0.24868   0.34452   0.23143   0.19654
 -1.30653   0.01079   0.06915   0.25622   0.25135   0.25527   0.24936   0.36798   0.17126   0.25542   0.25008   0.33975   0.17001
 -1.24121   0.00899   0.07706   0.21884   0.26975   0.21781   0.26860   0.36183   0.09852   0.21799   0.26913   0.31368   0.09809
 -1.17588   0.00945   0.06962   0.22522   0.25032   0.22440   0.24933   0.41236   0.05876   0.22456   0.24969   0.37350   0.05859
 -1.11055   0.01120   0.07643   0.24254   0.25925   0.24257   0.25870   0.50050   0.06265   0.24257   0.25891   0.48920   0.06240
 -1.04523   0.01201   0.08579   0.26930   0.27230   0.26936   0.27179   0.58941   0.06956   0.26935   0.27196   0.61070   0.06926
 -0.97990   0.01460   0.09198   0.34510   0.27617   0.34538   0.27574   0.70875   0.07727   0.34530   0.27588   0.76152   0.07696
 -0.91457   0.01035   0.09819   0.37873   0.27829   0.38089   0.27803   0.75050   0.08213   0.38057   0.27811   0.79849   0.08187
 -0.84925   0.01074   0.10559   0.25289   0.28576   0.25557   0.28581   0.63375   0.08715   0.25576   0.28581   0.64206   0.08701
 -0.78392   0.02488   0.16652   0.16782   0.38082   0.17178   0.38141   0.87783   0.15422   0.17251   0.38128   0.88006   0.15405
 -0.71859   0.04447   0.11805   0.18511   0.32938   0.18471   0.33054   0.52127   0.10030   0.18430   0.33026   0.53353   0.09993
 -0.65327   0.05446   0.11114   0.21088   0.31198   0.21023   0.31284   0.39367   0.09674   0.20998   0.31264   0.39389   0.09612
 -0.58794   0.06096   0.12599   0.23038   0.32489   0.22935   0.32512   0.30286   0.08448   0.22921   0.32506   0.30220   0.08370
 -0.52261   0.11226   0.07999   0.23171   0.29091   0.22963   0.29068   0.24213   0.05012   0.22972   0.29072   0.24103   0.04947
 -0.45729   0.03561   0.07020   0.17585   0.26289   0.17230   0.26112   0.14182   0.04065   0.17272   0.26155   0.14060   0.04011
 -0.39196   0.02550   0.06162   0.19259   0.16710   0.18691   0.16540   0.11952   0.02828   0.18782   0.16571   0.11783   0.02792
 -0.32663   0.02616   0.05441   0.19914   0.09118   0.19176   0.09120   0.09212   0.02196   0.19303   0.09120   0.09034   0.02172