  COHP#  atomMU  atomNU     distance     translation      ICOHP (at) eF   for spin  1
      1     Fe1     Fe1      2.83178       0   0  -1           -0.08672 
      2     Fe1     Fe1      2.83178       0  -1   0           -0.08540 
      3     Fe1     Fe1      2.83178      -1   0   0           -0.08629 
      4     Fe1     Fe1      2.83178       1   0   0           -0.08629 
      5     Fe1     Fe1      2.83178       0   1   0           -0.08540 
      6     Fe1     Fe1      2.83178       0   0   1           -0.08672 
      7     Fe1     Fe2      2.45239      -1  -1  -1           -0.26102 
      8     Fe1     Fe2      2.45239       0  -1  -1           -0.24251 
      9     Fe1     Fe2      2.45239      -1   0  -1           -0.22802 
     10     Fe1     Fe2      2.45239       0   0  -1           -0.21720 
     11     Fe1     Fe2      2.45239      -1  -1   0           -0.21720 
     12     Fe1     Fe2      2.45239       0  -1   0           -0.22802 
     13     Fe1     Fe2      2.45239      -1   0   0           -0.24251 
     14     Fe1     Fe2      2.45239       0   0   0           -0.26102 
     15     Fe2     Fe2      2.83178       0   0  -1           -0.08672 
     16     Fe2     Fe2      2.83178       0  -1   0           -0.08540 
     17     Fe2     Fe2      2.83178      -1   0   0           -0.08629 
     18     Fe2     Fe2      2.83178       1   0   0           -0.08629 
     19     Fe2     Fe2      2.83178       0   1   0           -0.08540 
     20     Fe2     Fe2      2.83178       0   0   1           -0.08672 
  COHP#  atomMU  atomNU     distance     translation      ICOHP (at) eF   for spin  2
      1     Fe1     Fe1      2.83178       0   0  -1           -0.16529 
      2     Fe1     Fe1      2.83178       0  -1   0           -0.16739 
      3     Fe1     Fe1      2.83178      -1   0   0           -0.17311 
      4     Fe1     Fe1      2.83178       1   0   0           -0.17311 
      5     Fe1     Fe1      2.83178       0   1   0           -0.16739 
      6     Fe1     Fe1      2.83178       0   0   1           -0.16529 
      7     Fe1     Fe2      2.45239      -1  -1  -1           -0.47160 
      8     Fe1     Fe2      2.45239       0  -1  -1           -0.48790 
      9     Fe1     Fe2      2.45239      -1   0  -1           -0.50382 
     10     Fe1     Fe2      2.45239       0   0  -1           -0.52277 
     11     Fe1     Fe2      2.45239      -1  -1   0           -0.52277 
     12     Fe1     Fe2      2.45239       0  -1   0           -0.50382 
     13     Fe1     Fe2      2.45239      -1   0   0           -0.48790 
     14     Fe1     Fe2      2.45239       0   0   0           -0.47160 
     15     Fe2     Fe2      2.83178       0   0  -1           -0.16529 
     16     Fe2     Fe2      2.83178       0  -1   0           -0.16739 
     17     Fe2     Fe2      2.83178      -1   0   0           -0.17311 
     18     Fe2     Fe2      2.83178       1   0   0           -0.17311 
     19     Fe2     Fe2      2.83178       0   1   0           -0.16739 
     20     Fe2     Fe2      2.83178       0   0   1           -0.16529 
