 vasp.5.4.4.18Apr17-6-g9f103f2a35 (build Mar 26 2019 17:03:36) complex          
  
 executed on                LINUX date 2021.04.29  09:02:32
 serial version


--------------------------------------------------------------------------------------------------------


 INCAR:
 POTCAR:    PAW_PBE Fe 06Sep2000                  
 POTCAR:    PAW_PBE Fe 06Sep2000                  
  local pseudopotential read in
  partial core-charges read in
  partial kinetic energy density read in
  atomic valenz-charges read in
  non local Contribution for L=           2  read in
    real space projection operators read in
  non local Contribution for L=           2  read in
    real space projection operators read in
  non local Contribution for L=           0  read in
    real space projection operators read in
  non local Contribution for L=           0  read in
    real space projection operators read in
  non local Contribution for L=           1  read in
    real space projection operators read in
  non local Contribution for L=           1  read in
    real space projection operators read in
    PAW grid and wavefunctions read in
 
   number of l-projection  operators is LMAX  =           6
   number of lm-projection operators is LMMAX =          18
 
  PAW_PBE Fe 06Sep2000                  :
 energy of atom  1       EATOM= -594.3153
 kinetic energy error for atom=    0.0026 (will be added to EATOM!!)
 
 
 POSCAR: Fe                                      
  positions in direct lattice
  velocities in cartesian coordinates
 exchange correlation table for  LEXCH =        8
   RHO(1)=    0.500       N(1)  =     2000
   RHO(2)=  100.500       N(2)  =     4000
 


--------------------------------------------------------------------------------------------------------


 ion  position               nearest neighbor table
   1  0.500  0.500  0.500-   2 2.45   2 2.45   2 2.45   2 2.45   2 2.45   2 2.45   2 2.45   2 2.45

   2  0.000  0.000  0.000-   1 2.45   1 2.45   1 2.45   1 2.45   1 2.45   1 2.45   1 2.45   1 2.45

 

IMPORTANT INFORMATION: All symmetrisations will be switched off!
NOSYMM: (Re-)initialisation of all symmetry stuff for point group C_1.

 
 
 KPOINTS: kptsfl                                  

Automatic generation of k-mesh.
Space group operators:
 irot       det(A)        alpha          n_x          n_y          n_z        tau_x        tau_y        tau_z
    1     1.000000     0.000001     1.000000     0.000000     0.000000     0.000000     0.000000     0.000000
 
 Subroutine IBZKPT returns following result:
 ===========================================
 
 Found    256 irreducible k-points:
 
 Following reciprocal coordinates:
            Coordinates               Weight
  0.062500  0.062500  0.062500      2.000000
  0.187500  0.062500  0.062500      2.000000
  0.312500  0.062500  0.062500      2.000000
  0.437500  0.062500  0.062500      2.000000
 -0.437500  0.062500  0.062500      2.000000
 -0.312500  0.062500  0.062500      2.000000
 -0.187500  0.062500  0.062500      2.000000
 -0.062500  0.062500  0.062500      2.000000
  0.062500  0.187500  0.062500      2.000000
  0.187500  0.187500  0.062500      2.000000
  0.312500  0.187500  0.062500      2.000000
  0.437500  0.187500  0.062500      2.000000
 -0.437500  0.187500  0.062500      2.000000
 -0.312500  0.187500  0.062500      2.000000
 -0.187500  0.187500  0.062500      2.000000
 -0.062500  0.187500  0.062500      2.000000
  0.062500  0.312500  0.062500      2.000000
  0.187500  0.312500  0.062500      2.000000
  0.312500  0.312500  0.062500      2.000000
  0.437500  0.312500  0.062500      2.000000
 -0.437500  0.312500  0.062500      2.000000
 -0.312500  0.312500  0.062500      2.000000
 -0.187500  0.312500  0.062500      2.000000
 -0.062500  0.312500  0.062500      2.000000
  0.062500  0.437500  0.062500      2.000000
  0.187500  0.437500  0.062500      2.000000
  0.312500  0.437500  0.062500      2.000000
  0.437500  0.437500  0.062500      2.000000
 -0.437500  0.437500  0.062500      2.000000
 -0.312500  0.437500  0.062500      2.000000
 -0.187500  0.437500  0.062500      2.000000
 -0.062500  0.437500  0.062500      2.000000
  0.062500 -0.437500  0.062500      2.000000
  0.187500 -0.437500  0.062500      2.000000
  0.312500 -0.437500  0.062500      2.000000
  0.437500 -0.437500  0.062500      2.000000
 -0.437500 -0.437500  0.062500      2.000000
 -0.312500 -0.437500  0.062500      2.000000
 -0.187500 -0.437500  0.062500      2.000000
 -0.062500 -0.437500  0.062500      2.000000
  0.062500 -0.312500  0.062500      2.000000
  0.187500 -0.312500  0.062500      2.000000
  0.312500 -0.312500  0.062500      2.000000
  0.437500 -0.312500  0.062500      2.000000
 -0.437500 -0.312500  0.062500      2.000000
 -0.312500 -0.312500  0.062500      2.000000
 -0.187500 -0.312500  0.062500      2.000000
 -0.062500 -0.312500  0.062500      2.000000
  0.062500 -0.187500  0.062500      2.000000
  0.187500 -0.187500  0.062500      2.000000
  0.312500 -0.187500  0.062500      2.000000
  0.437500 -0.187500  0.062500      2.000000
 -0.437500 -0.187500  0.062500      2.000000
 -0.312500 -0.187500  0.062500      2.000000
 -0.187500 -0.187500  0.062500      2.000000
 -0.062500 -0.187500  0.062500      2.000000
  0.062500 -0.062500  0.062500      2.000000
  0.187500 -0.062500  0.062500      2.000000
  0.312500 -0.062500  0.062500      2.000000
  0.437500 -0.062500  0.062500      2.000000
 -0.437500 -0.062500  0.062500      2.000000
 -0.312500 -0.062500  0.062500      2.000000
 -0.187500 -0.062500  0.062500      2.000000
 -0.062500 -0.062500  0.062500      2.000000
  0.062500  0.062500  0.187500      2.000000
  0.187500  0.062500  0.187500      2.000000
  0.312500  0.062500  0.187500      2.000000
  0.437500  0.062500  0.187500      2.000000
 -0.437500  0.062500  0.187500      2.000000
 -0.312500  0.062500  0.187500      2.000000
 -0.187500  0.062500  0.187500      2.000000
 -0.062500  0.062500  0.187500      2.000000
  0.062500  0.187500  0.187500      2.000000
  0.187500  0.187500  0.187500      2.000000
  0.312500  0.187500  0.187500      2.000000
  0.437500  0.187500  0.187500      2.000000
 -0.437500  0.187500  0.187500      2.000000
 -0.312500  0.187500  0.187500      2.000000
 -0.187500  0.187500  0.187500      2.000000
 -0.062500  0.187500  0.187500      2.000000
  0.062500  0.312500  0.187500      2.000000
  0.187500  0.312500  0.187500      2.000000
  0.312500  0.312500  0.187500      2.000000
  0.437500  0.312500  0.187500      2.000000
 -0.437500  0.312500  0.187500      2.000000
 -0.312500  0.312500  0.187500      2.000000
 -0.187500  0.312500  0.187500      2.000000
 -0.062500  0.312500  0.187500      2.000000
  0.062500  0.437500  0.187500      2.000000
  0.187500  0.437500  0.187500      2.000000
  0.312500  0.437500  0.187500      2.000000
  0.437500  0.437500  0.187500      2.000000
 -0.437500  0.437500  0.187500      2.000000
 -0.312500  0.437500  0.187500      2.000000
 -0.187500  0.437500  0.187500      2.000000
 -0.062500  0.437500  0.187500      2.000000
  0.062500 -0.437500  0.187500      2.000000
  0.187500 -0.437500  0.187500      2.000000
  0.312500 -0.437500  0.187500      2.000000
  0.437500 -0.437500  0.187500      2.000000
 -0.437500 -0.437500  0.187500      2.000000
 -0.312500 -0.437500  0.187500      2.000000
 -0.187500 -0.437500  0.187500      2.000000
 -0.062500 -0.437500  0.187500      2.000000
  0.062500 -0.312500  0.187500      2.000000
  0.187500 -0.312500  0.187500      2.000000
  0.312500 -0.312500  0.187500      2.000000
  0.437500 -0.312500  0.187500      2.000000
 -0.437500 -0.312500  0.187500      2.000000
 -0.312500 -0.312500  0.187500      2.000000
 -0.187500 -0.312500  0.187500      2.000000
 -0.062500 -0.312500  0.187500      2.000000
  0.062500 -0.187500  0.187500      2.000000
  0.187500 -0.187500  0.187500      2.000000
  0.312500 -0.187500  0.187500      2.000000
  0.437500 -0.187500  0.187500      2.000000
 -0.437500 -0.187500  0.187500      2.000000
 -0.312500 -0.187500  0.187500      2.000000
 -0.187500 -0.187500  0.187500      2.000000
 -0.062500 -0.187500  0.187500      2.000000
  0.062500 -0.062500  0.187500      2.000000
  0.187500 -0.062500  0.187500      2.000000
  0.312500 -0.062500  0.187500      2.000000
  0.437500 -0.062500  0.187500      2.000000
 -0.437500 -0.062500  0.187500      2.000000
 -0.312500 -0.062500  0.187500      2.000000
 -0.187500 -0.062500  0.187500      2.000000
 -0.062500 -0.062500  0.187500      2.000000
  0.062500  0.062500  0.312500      2.000000
  0.187500  0.062500  0.312500      2.000000
  0.312500  0.062500  0.312500      2.000000
  0.437500  0.062500  0.312500      2.000000
 -0.437500  0.062500  0.312500      2.000000
 -0.312500  0.062500  0.312500      2.000000
 -0.187500  0.062500  0.312500      2.000000
 -0.062500  0.062500  0.312500      2.000000
  0.062500  0.187500  0.312500      2.000000
  0.187500  0.187500  0.312500      2.000000
  0.312500  0.187500  0.312500      2.000000
  0.437500  0.187500  0.312500      2.000000
 -0.437500  0.187500  0.312500      2.000000
 -0.312500  0.187500  0.312500      2.000000
 -0.187500  0.187500  0.312500      2.000000
 -0.062500  0.187500  0.312500      2.000000
  0.062500  0.312500  0.312500      2.000000
  0.187500  0.312500  0.312500      2.000000
  0.312500  0.312500  0.312500      2.000000
  0.437500  0.312500  0.312500      2.000000
 -0.437500  0.312500  0.312500      2.000000
 -0.312500  0.312500  0.312500      2.000000
 -0.187500  0.312500  0.312500      2.000000
 -0.062500  0.312500  0.312500      2.000000
  0.062500  0.437500  0.312500      2.000000
  0.187500  0.437500  0.312500      2.000000
  0.312500  0.437500  0.312500      2.000000
  0.437500  0.437500  0.312500      2.000000
 -0.437500  0.437500  0.312500      2.000000
 -0.312500  0.437500  0.312500      2.000000
 -0.187500  0.437500  0.312500      2.000000
 -0.062500  0.437500  0.312500      2.000000
  0.062500 -0.437500  0.312500      2.000000
  0.187500 -0.437500  0.312500      2.000000
  0.312500 -0.437500  0.312500      2.000000
  0.437500 -0.437500  0.312500      2.000000
 -0.437500 -0.437500  0.312500      2.000000
 -0.312500 -0.437500  0.312500      2.000000
 -0.187500 -0.437500  0.312500      2.000000
 -0.062500 -0.437500  0.312500      2.000000
  0.062500 -0.312500  0.312500      2.000000
  0.187500 -0.312500  0.312500      2.000000
  0.312500 -0.312500  0.312500      2.000000
  0.437500 -0.312500  0.312500      2.000000
 -0.437500 -0.312500  0.312500      2.000000
 -0.312500 -0.312500  0.312500      2.000000
 -0.187500 -0.312500  0.312500      2.000000
 -0.062500 -0.312500  0.312500      2.000000
  0.062500 -0.187500  0.312500      2.000000
  0.187500 -0.187500  0.312500      2.000000
  0.312500 -0.187500  0.312500      2.000000
  0.437500 -0.187500  0.312500      2.000000
 -0.437500 -0.187500  0.312500      2.000000
 -0.312500 -0.187500  0.312500      2.000000
 -0.187500 -0.187500  0.312500      2.000000
 -0.062500 -0.187500  0.312500      2.000000
  0.062500 -0.062500  0.312500      2.000000
  0.187500 -0.062500  0.312500      2.000000
  0.312500 -0.062500  0.312500      2.000000
  0.437500 -0.062500  0.312500      2.000000
 -0.437500 -0.062500  0.312500      2.000000
 -0.312500 -0.062500  0.312500      2.000000
 -0.187500 -0.062500  0.312500      2.000000
 -0.062500 -0.062500  0.312500      2.000000
  0.062500  0.062500  0.437500      2.000000
  0.187500  0.062500  0.437500      2.000000
  0.312500  0.062500  0.437500      2.000000
  0.437500  0.062500  0.437500      2.000000
 -0.437500  0.062500  0.437500      2.000000
 -0.312500  0.062500  0.437500      2.000000
 -0.187500  0.062500  0.437500      2.000000
 -0.062500  0.062500  0.437500      2.000000
  0.062500  0.187500  0.437500      2.000000
  0.187500  0.187500  0.437500      2.000000
  0.312500  0.187500  0.437500      2.000000
  0.437500  0.187500  0.437500      2.000000
 -0.437500  0.187500  0.437500      2.000000
 -0.312500  0.187500  0.437500      2.000000
 -0.187500  0.187500  0.437500      2.000000
 -0.062500  0.187500  0.437500      2.000000
  0.062500  0.312500  0.437500      2.000000
  0.187500  0.312500  0.437500      2.000000
  0.312500  0.312500  0.437500      2.000000
  0.437500  0.312500  0.437500      2.000000
 -0.437500  0.312500  0.437500      2.000000
 -0.312500  0.312500  0.437500      2.000000
 -0.187500  0.312500  0.437500      2.000000
 -0.062500  0.312500  0.437500      2.000000
  0.062500  0.437500  0.437500      2.000000
  0.187500  0.437500  0.437500      2.000000
  0.312500  0.437500  0.437500      2.000000
  0.437500  0.437500  0.437500      2.000000
 -0.437500  0.437500  0.437500      2.000000
 -0.312500  0.437500  0.437500      2.000000
 -0.187500  0.437500  0.437500      2.000000
 -0.062500  0.437500  0.437500      2.000000
  0.062500 -0.437500  0.437500      2.000000
  0.187500 -0.437500  0.437500      2.000000
  0.312500 -0.437500  0.437500      2.000000
  0.437500 -0.437500  0.437500      2.000000
 -0.437500 -0.437500  0.437500      2.000000
 -0.312500 -0.437500  0.437500      2.000000
 -0.187500 -0.437500  0.437500      2.000000
 -0.062500 -0.437500  0.437500      2.000000
  0.062500 -0.312500  0.437500      2.000000
  0.187500 -0.312500  0.437500      2.000000
  0.312500 -0.312500  0.437500      2.000000
  0.437500 -0.312500  0.437500      2.000000
 -0.437500 -0.312500  0.437500      2.000000
 -0.312500 -0.312500  0.437500      2.000000
 -0.187500 -0.312500  0.437500      2.000000
 -0.062500 -0.312500  0.437500      2.000000
  0.062500 -0.187500  0.437500      2.000000
  0.187500 -0.187500  0.437500      2.000000
  0.312500 -0.187500  0.437500      2.000000
  0.437500 -0.187500  0.437500      2.000000
 -0.437500 -0.187500  0.437500      2.000000
 -0.312500 -0.187500  0.437500      2.000000
 -0.187500 -0.187500  0.437500      2.000000
 -0.062500 -0.187500  0.437500      2.000000
  0.062500 -0.062500  0.437500      2.000000
  0.187500 -0.062500  0.437500      2.000000
  0.312500 -0.062500  0.437500      2.000000
  0.437500 -0.062500  0.437500      2.000000
 -0.437500 -0.062500  0.437500      2.000000
 -0.312500 -0.062500  0.437500      2.000000
 -0.187500 -0.062500  0.437500      2.000000
 -0.062500 -0.062500  0.437500      2.000000
 
 Following cartesian coordinates:
            Coordinates               Weight
  0.022071  0.022071  0.022071      2.000000
  0.066213  0.022071  0.022071      2.000000
  0.110355  0.022071  0.022071      2.000000
  0.154497  0.022071  0.022071      2.000000
 -0.154497  0.022071  0.022071      2.000000
 -0.110355  0.022071  0.022071      2.000000
 -0.066213  0.022071  0.022071      2.000000
 -0.022071  0.022071  0.022071      2.000000
  0.022071  0.066213  0.022071      2.000000
  0.066213  0.066213  0.022071      2.000000
  0.110355  0.066213  0.022071      2.000000
  0.154497  0.066213  0.022071      2.000000
 -0.154497  0.066213  0.022071      2.000000
 -0.110355  0.066213  0.022071      2.000000
 -0.066213  0.066213  0.022071      2.000000
 -0.022071  0.066213  0.022071      2.000000
  0.022071  0.110355  0.022071      2.000000
  0.066213  0.110355  0.022071      2.000000
  0.110355  0.110355  0.022071      2.000000
  0.154497  0.110355  0.022071      2.000000
 -0.154497  0.110355  0.022071      2.000000
 -0.110355  0.110355  0.022071      2.000000
 -0.066213  0.110355  0.022071      2.000000
 -0.022071  0.110355  0.022071      2.000000
  0.022071  0.154497  0.022071      2.000000
  0.066213  0.154497  0.022071      2.000000
  0.110355  0.154497  0.022071      2.000000
  0.154497  0.154497  0.022071      2.000000
 -0.154497  0.154497  0.022071      2.000000
 -0.110355  0.154497  0.022071      2.000000
 -0.066213  0.154497  0.022071      2.000000
 -0.022071  0.154497  0.022071      2.000000
  0.022071 -0.154497  0.022071      2.000000
  0.066213 -0.154497  0.022071      2.000000
  0.110355 -0.154497  0.022071      2.000000
  0.154497 -0.154497  0.022071      2.000000
 -0.154497 -0.154497  0.022071      2.000000
 -0.110355 -0.154497  0.022071      2.000000
 -0.066213 -0.154497  0.022071      2.000000
 -0.022071 -0.154497  0.022071      2.000000
  0.022071 -0.110355  0.022071      2.000000
  0.066213 -0.110355  0.022071      2.000000
  0.110355 -0.110355  0.022071      2.000000
  0.154497 -0.110355  0.022071      2.000000
 -0.154497 -0.110355  0.022071      2.000000
 -0.110355 -0.110355  0.022071      2.000000
 -0.066213 -0.110355  0.022071      2.000000
 -0.022071 -0.110355  0.022071      2.000000
  0.022071 -0.066213  0.022071      2.000000
  0.066213 -0.066213  0.022071      2.000000
  0.110355 -0.066213  0.022071      2.000000
  0.154497 -0.066213  0.022071      2.000000
 -0.154497 -0.066213  0.022071      2.000000
 -0.110355 -0.066213  0.022071      2.000000
 -0.066213 -0.066213  0.022071      2.000000
 -0.022071 -0.066213  0.022071      2.000000
  0.022071 -0.022071  0.022071      2.000000
  0.066213 -0.022071  0.022071      2.000000
  0.110355 -0.022071  0.022071      2.000000
  0.154497 -0.022071  0.022071      2.000000
 -0.154497 -0.022071  0.022071      2.000000
 -0.110355 -0.022071  0.022071      2.000000
 -0.066213 -0.022071  0.022071      2.000000
 -0.022071 -0.022071  0.022071      2.000000
  0.022071  0.022071  0.066213      2.000000
  0.066213  0.022071  0.066213      2.000000
  0.110355  0.022071  0.066213      2.000000
  0.154497  0.022071  0.066213      2.000000
 -0.154497  0.022071  0.066213      2.000000
 -0.110355  0.022071  0.066213      2.000000
 -0.066213  0.022071  0.066213      2.000000
 -0.022071  0.022071  0.066213      2.000000
  0.022071  0.066213  0.066213      2.000000
  0.066213  0.066213  0.066213      2.000000
  0.110355  0.066213  0.066213      2.000000
  0.154497  0.066213  0.066213      2.000000
 -0.154497  0.066213  0.066213      2.000000
 -0.110355  0.066213  0.066213      2.000000
 -0.066213  0.066213  0.066213      2.000000
 -0.022071  0.066213  0.066213      2.000000
  0.022071  0.110355  0.066213      2.000000
  0.066213  0.110355  0.066213      2.000000
  0.110355  0.110355  0.066213      2.000000
  0.154497  0.110355  0.066213      2.000000
 -0.154497  0.110355  0.066213      2.000000
 -0.110355  0.110355  0.066213      2.000000
 -0.066213  0.110355  0.066213      2.000000
 -0.022071  0.110355  0.066213      2.000000
  0.022071  0.154497  0.066213      2.000000
  0.066213  0.154497  0.066213      2.000000
  0.110355  0.154497  0.066213      2.000000
  0.154497  0.154497  0.066213      2.000000
 -0.154497  0.154497  0.066213      2.000000
 -0.110355  0.154497  0.066213      2.000000
 -0.066213  0.154497  0.066213      2.000000
 -0.022071  0.154497  0.066213      2.000000
  0.022071 -0.154497  0.066213      2.000000
  0.066213 -0.154497  0.066213      2.000000
  0.110355 -0.154497  0.066213      2.000000
  0.154497 -0.154497  0.066213      2.000000
 -0.154497 -0.154497  0.066213      2.000000
 -0.110355 -0.154497  0.066213      2.000000
 -0.066213 -0.154497  0.066213      2.000000
 -0.022071 -0.154497  0.066213      2.000000
  0.022071 -0.110355  0.066213      2.000000
  0.066213 -0.110355  0.066213      2.000000
  0.110355 -0.110355  0.066213      2.000000
  0.154497 -0.110355  0.066213      2.000000
 -0.154497 -0.110355  0.066213      2.000000
 -0.110355 -0.110355  0.066213      2.000000
 -0.066213 -0.110355  0.066213      2.000000
 -0.022071 -0.110355  0.066213      2.000000
  0.022071 -0.066213  0.066213      2.000000
  0.066213 -0.066213  0.066213      2.000000
  0.110355 -0.066213  0.066213      2.000000
  0.154497 -0.066213  0.066213      2.000000
 -0.154497 -0.066213  0.066213      2.000000
 -0.110355 -0.066213  0.066213      2.000000
 -0.066213 -0.066213  0.066213      2.000000
 -0.022071 -0.066213  0.066213      2.000000
  0.022071 -0.022071  0.066213      2.000000
  0.066213 -0.022071  0.066213      2.000000
  0.110355 -0.022071  0.066213      2.000000
  0.154497 -0.022071  0.066213      2.000000
 -0.154497 -0.022071  0.066213      2.000000
 -0.110355 -0.022071  0.066213      2.000000
 -0.066213 -0.022071  0.066213      2.000000
 -0.022071 -0.022071  0.066213      2.000000
  0.022071  0.022071  0.110355      2.000000
  0.066213  0.022071  0.110355      2.000000
  0.110355  0.022071  0.110355      2.000000
  0.154497  0.022071  0.110355      2.000000
 -0.154497  0.022071  0.110355      2.000000
 -0.110355  0.022071  0.110355      2.000000
 -0.066213  0.022071  0.110355      2.000000
 -0.022071  0.022071  0.110355      2.000000
  0.022071  0.066213  0.110355      2.000000
  0.066213  0.066213  0.110355      2.000000
  0.110355  0.066213  0.110355      2.000000
  0.154497  0.066213  0.110355      2.000000
 -0.154497  0.066213  0.110355      2.000000
 -0.110355  0.066213  0.110355      2.000000
 -0.066213  0.066213  0.110355      2.000000
 -0.022071  0.066213  0.110355      2.000000
  0.022071  0.110355  0.110355      2.000000
  0.066213  0.110355  0.110355      2.000000
  0.110355  0.110355  0.110355      2.000000
  0.154497  0.110355  0.110355      2.000000
 -0.154497  0.110355  0.110355      2.000000
 -0.110355  0.110355  0.110355      2.000000
 -0.066213  0.110355  0.110355      2.000000
 -0.022071  0.110355  0.110355      2.000000
  0.022071  0.154497  0.110355      2.000000
  0.066213  0.154497  0.110355      2.000000
  0.110355  0.154497  0.110355      2.000000
  0.154497  0.154497  0.110355      2.000000
 -0.154497  0.154497  0.110355      2.000000
 -0.110355  0.154497  0.110355      2.000000
 -0.066213  0.154497  0.110355      2.000000
 -0.022071  0.154497  0.110355      2.000000
  0.022071 -0.154497  0.110355      2.000000
  0.066213 -0.154497  0.110355      2.000000
  0.110355 -0.154497  0.110355      2.000000
  0.154497 -0.154497  0.110355      2.000000
 -0.154497 -0.154497  0.110355      2.000000
 -0.110355 -0.154497  0.110355      2.000000
 -0.066213 -0.154497  0.110355      2.000000
 -0.022071 -0.154497  0.110355      2.000000
  0.022071 -0.110355  0.110355      2.000000
  0.066213 -0.110355  0.110355      2.000000
  0.110355 -0.110355  0.110355      2.000000
  0.154497 -0.110355  0.110355      2.000000
 -0.154497 -0.110355  0.110355      2.000000
 -0.110355 -0.110355  0.110355      2.000000
 -0.066213 -0.110355  0.110355      2.000000
 -0.022071 -0.110355  0.110355      2.000000
  0.022071 -0.066213  0.110355      2.000000
  0.066213 -0.066213  0.110355      2.000000
  0.110355 -0.066213  0.110355      2.000000
  0.154497 -0.066213  0.110355      2.000000
 -0.154497 -0.066213  0.110355      2.000000
 -0.110355 -0.066213  0.110355      2.000000
 -0.066213 -0.066213  0.110355      2.000000
 -0.022071 -0.066213  0.110355      2.000000
  0.022071 -0.022071  0.110355      2.000000
  0.066213 -0.022071  0.110355      2.000000
  0.110355 -0.022071  0.110355      2.000000
  0.154497 -0.022071  0.110355      2.000000
 -0.154497 -0.022071  0.110355      2.000000
 -0.110355 -0.022071  0.110355      2.000000
 -0.066213 -0.022071  0.110355      2.000000
 -0.022071 -0.022071  0.110355      2.000000
  0.022071  0.022071  0.154497      2.000000
  0.066213  0.022071  0.154497      2.000000
  0.110355  0.022071  0.154497      2.000000
  0.154497  0.022071  0.154497      2.000000
 -0.154497  0.022071  0.154497      2.000000
 -0.110355  0.022071  0.154497      2.000000
 -0.066213  0.022071  0.154497      2.000000
 -0.022071  0.022071  0.154497      2.000000
  0.022071  0.066213  0.154497      2.000000
  0.066213  0.066213  0.154497      2.000000
  0.110355  0.066213  0.154497      2.000000
  0.154497  0.066213  0.154497      2.000000
 -0.154497  0.066213  0.154497      2.000000
 -0.110355  0.066213  0.154497      2.000000
 -0.066213  0.066213  0.154497      2.000000
 -0.022071  0.066213  0.154497      2.000000
  0.022071  0.110355  0.154497      2.000000
  0.066213  0.110355  0.154497      2.000000
  0.110355  0.110355  0.154497      2.000000
  0.154497  0.110355  0.154497      2.000000
 -0.154497  0.110355  0.154497      2.000000
 -0.110355  0.110355  0.154497      2.000000
 -0.066213  0.110355  0.154497      2.000000
 -0.022071  0.110355  0.154497      2.000000
  0.022071  0.154497  0.154497      2.000000
  0.066213  0.154497  0.154497      2.000000
  0.110355  0.154497  0.154497      2.000000
  0.154497  0.154497  0.154497      2.000000
 -0.154497  0.154497  0.154497      2.000000
 -0.110355  0.154497  0.154497      2.000000
 -0.066213  0.154497  0.154497      2.000000
 -0.022071  0.154497  0.154497      2.000000
  0.022071 -0.154497  0.154497      2.000000
  0.066213 -0.154497  0.154497      2.000000
  0.110355 -0.154497  0.154497      2.000000
  0.154497 -0.154497  0.154497      2.000000
 -0.154497 -0.154497  0.154497      2.000000
 -0.110355 -0.154497  0.154497      2.000000
 -0.066213 -0.154497  0.154497      2.000000
 -0.022071 -0.154497  0.154497      2.000000
  0.022071 -0.110355  0.154497      2.000000
  0.066213 -0.110355  0.154497      2.000000
  0.110355 -0.110355  0.154497      2.000000
  0.154497 -0.110355  0.154497      2.000000
 -0.154497 -0.110355  0.154497      2.000000
 -0.110355 -0.110355  0.154497      2.000000
 -0.066213 -0.110355  0.154497      2.000000
 -0.022071 -0.110355  0.154497      2.000000
  0.022071 -0.066213  0.154497      2.000000
  0.066213 -0.066213  0.154497      2.000000
  0.110355 -0.066213  0.154497      2.000000
  0.154497 -0.066213  0.154497      2.000000
 -0.154497 -0.066213  0.154497      2.000000
 -0.110355 -0.066213  0.154497      2.000000
 -0.066213 -0.066213  0.154497      2.000000
 -0.022071 -0.066213  0.154497      2.000000
  0.022071 -0.022071  0.154497      2.000000
  0.066213 -0.022071  0.154497      2.000000
  0.110355 -0.022071  0.154497      2.000000
  0.154497 -0.022071  0.154497      2.000000
 -0.154497 -0.022071  0.154497      2.000000
 -0.110355 -0.022071  0.154497      2.000000
 -0.066213 -0.022071  0.154497      2.000000
 -0.022071 -0.022071  0.154497      2.000000
 
 TETIRR: Found   1536 inequivalent tetrahedra from     3072


--------------------------------------------------------------------------------------------------------




 Dimension of arrays:
   k-points           NKPTS =    256   k-points in BZ     NKDIM =    256   number of bands    NBANDS=     16
   number of dos      NEDOS =    301   number of ions     NIONS =      2
   non local maximal  LDIM  =      6   non local SUM 2l+1 LMDIM =     18
   total plane-waves  NPLWV =  13824
   max r-space proj   IRMAX =      1   max aug-charges    IRDMAX=  21883
   dimension x,y,z NGX =    24 NGY =   24 NGZ =   24
   dimension x,y,z NGXF=    48 NGYF=   48 NGZF=   48
   support grid    NGXF=    48 NGYF=   48 NGZF=   48
   ions per type =               2
   NGX,Y,Z   is equivalent  to a cutoff of  14.09, 14.09, 14.09 a.u.
   NGXF,Y,Z  is equivalent  to a cutoff of  28.18, 28.18, 28.18 a.u.

 SYSTEM =  Fe                                      
 POSCAR =  Fe                                      

 Startparameter for this run:
   NWRITE =      0    write-flag & timer
   PREC   = accura    normal or accurate (medium, high low for compatibility)
   ISTART =      0    job   : 0-new  1-cont  2-samecut
   ICHARG =      2    charge: 1-file 2-atom 10-const
   ISPIN  =      2    spin polarized calculation?
   LNONCOLLINEAR =      F non collinear calculations
   LSORBIT =      F    spin-orbit coupling
   INIWAV =      1    electr: 0-lowe 1-rand  2-diag
   LASPH  =      F    aspherical Exc in radial PAW
   METAGGA=      F    non-selfconsistent MetaGGA calc.

 Electronic Relaxation 1
   ENCUT  =  500.0 eV  36.75 Ry    6.06 a.u.   5.16  5.16  5.16*2*pi/ulx,y,z
   ENINI  =  500.0     initial cutoff
   ENAUG  =  511.4 eV  augmentation charge cutoff
   NELM   =     60;   NELMIN=  2; NELMDL=  0     # of ELM steps 
   EDIFF  = 0.1E-06   stopping-criterion for ELM
   LREAL  =      F    real-space projection
   NLSPLINE    = F    spline interpolate recip. space projectors
   LCOMPAT=      F    compatible to vasp.4.4
   GGA_COMPAT  = T    GGA compatible to vasp.4.4-vasp.4.6
   LMAXPAW     = -100 max onsite density
   LMAXMIX     =    2 max onsite mixed and CHGCAR
   VOSKOWN=      0    Vosko Wilk Nusair interpolation
   ROPT   =    0.00000
 Ionic relaxation
   EDIFFG = 0.1E-05   stopping-criterion for IOM
   NSW    =      0    number of steps for IOM
   NBLOCK =      1;   KBLOCK =      1    inner block; outer block 
   IBRION =     -1    ionic relax: 0-MD 1-quasi-New 2-CG
   NFREE  =      0    steps in history (QN), initial steepest desc. (CG)
   ISIF   =      2    stress and relaxation
   IWAVPR =      0    prediction:  0-non 1-charg 2-wave 3-comb
   ISYM   =      0    0-nonsym 1-usesym 2-fastsym
   LCORR  =      T    Harris-Foulkes like correction to forces

   POTIM  = 0.5000    time-step for ionic-motion
   TEIN   =    0.0    initial temperature
   TEBEG  =    0.0;   TEEND  =   0.0 temperature during run
   SMASS  =  -3.00    Nose mass-parameter (am)
   estimated Nose-frequenzy (Omega)   =  0.10E-29 period in steps =****** mass=  -0.183E-27a.u.
   SCALEE = 1.0000    scale energy and forces
   NPACO  =    256;   APACO  = 16.0  distance and # of slots for P.C.
   PSTRESS=    0.0 pullay stress

  Mass of Ions in am
   POMASS =  55.85
  Ionic Valenz
   ZVAL   =   8.00
  Atomic Wigner-Seitz radii
   RWIGS  =  -1.00
  virtual crystal weights 
   VCA    =   1.00
   NELECT =      16.0000    total number of electrons
   NUPDOWN=      -1.0000    fix difference up-down

 DOS related values:
   EMIN   =  10.00;   EMAX   =-10.00  energy-range for DOS
   EFERMI =   0.00
   ISMEAR =    -5;   SIGMA  =   0.20  broadening in eV -4-tet -1-fermi 0-gaus

 Electronic relaxation 2 (details)
   IALGO  =     38    algorithm
   LDIAG  =      T    sub-space diagonalisation (order eigenvalues)
   LSUBROT=      F    optimize rotation matrix (better conditioning)
   TURBO    =      0    0=normal 1=particle mesh
   IRESTART =      0    0=no restart 2=restart with 2 vectors
   NREBOOT  =      0    no. of reboots
   NMIN     =      0    reboot dimension
   EREF     =   0.00    reference energy to select bands
   IMIX   =      4    mixing-type and parameters
     AMIX     =   0.40;   BMIX     =  1.00
     AMIX_MAG =   1.60;   BMIX_MAG =  1.00
     AMIN     =   0.10
     WC   =   100.;   INIMIX=   1;  MIXPRE=   1;  MAXMIX= -45

 Intra band minimization:
   WEIMIN = 0.0000     energy-eigenvalue tresh-hold
   EBREAK =  0.16E-08  absolut break condition
   DEPER  =   0.30     relativ break condition  

   TIME   =   0.40     timestep for ELM

  volume/ion in A,a.u.               =      11.35        76.62
  Fermi-wavevector in a.u.,A,eV,Ry     =   1.456764  2.752886 28.873775  2.122163
  Thomas-Fermi vector in A             =   2.573645
 
 Write flags
   LWAVE        =      T    write WAVECAR
   LDOWNSAMPLE  =      F    k-point downsampling of WAVECAR
   LCHARG       =      T    write CHGCAR
   LVTOT        =      F    write LOCPOT, total local potential
   LVHAR        =      F    write LOCPOT, Hartree potential only
   LELF         =      F    write electronic localiz. function (ELF)
   LORBIT       =      0    0 simple, 1 ext, 2 COOP (PROOUT), +10 PAW based schemes


 Dipole corrections
   LMONO  =      F    monopole corrections only (constant potential shift)
   LDIPOL =      F    correct potential (dipole corrections)
   IDIPOL =      0    1-x, 2-y, 3-z, 4-all directions 
   EPSILON=  1.0000000 bulk dielectric constant

 Exchange correlation treatment:
   GGA     =    --    GGA type
   LEXCH   =     8    internal setting for exchange type
   VOSKOWN=      0    Vosko Wilk Nusair interpolation
   LHFCALC =     F    Hartree Fock is set to
   LHFONE  =     F    Hartree Fock one center treatment
   AEXX    =    0.0000 exact exchange contribution

 Linear response parameters
   LEPSILON=     F    determine dielectric tensor
   LRPA    =     F    only Hartree local field effects (RPA)
   LNABLA  =     F    use nabla operator in PAW spheres
   LVEL    =     F    velocity operator in full k-point grid
   LINTERFAST=   F  fast interpolation
   KINTER  =     0    interpolate to denser k-point grid
   CSHIFT  =0.1000    complex shift for real part using Kramers Kronig
   OMEGAMAX=  -1.0    maximum frequency
   DEG_THRESHOLD= 0.2000000E-02 threshold for treating states as degnerate
   RTIME   =   -0.100 relaxation time in fs
  (WPLASMAI=    0.000 imaginary part of plasma frequency in eV, 0.658/RTIME)
   DFIELD  = 0.0000000 0.0000000 0.0000000 field for delta impulse in time
 
 Orbital magnetization related:
   ORBITALMAG=     F  switch on orbital magnetization
   LCHIMAG   =     F  perturbation theory with respect to B field
   DQ        =  0.001000  dq finite difference perturbation B field
   LLRAUG    =     F  two centre corrections for induced B field



--------------------------------------------------------------------------------------------------------


 Static calculation
 charge density and potential will be updated during run
 spin polarized calculation
 Variant of blocked Davidson
 Davidson routine will perform the subspace rotation
 perform sub-space diagonalisation
    after iterative eigenvector-optimisation
 modified Broyden-mixing scheme, WC =      100.0
 initial mixing is a Kerker type mixing with AMIX =  0.4000 and BMIX =      1.0000
 Hartree-type preconditioning will be used
 using additional bands            8
 reciprocal scheme for non local part
 use partial core corrections
 calculate Harris-corrections to forces 
   (improved forces if not selfconsistent)
 use gradient corrections 
 use of overlap-Matrix (Vanderbilt PP)
 Fermi weights with tetrahedron method with Bloechl corrections


--------------------------------------------------------------------------------------------------------


  energy-cutoff  :      500.00
  volume of cell :       22.71
      direct lattice vectors                 reciprocal lattice vectors
     2.831775588  0.000000000  0.000000000     0.353135328  0.000000000  0.000000000
     0.000000000  2.831775588  0.000000000     0.000000000  0.353135328  0.000000000
     0.000000000  0.000000000  2.831775588     0.000000000  0.000000000  0.353135328

  length of vectors
     2.831775588  2.831775588  2.831775588     0.353135328  0.353135328  0.353135328


 
 k-points in units of 2pi/SCALE and weight: kptsfl                                  
   0.02207096  0.02207096  0.02207096       0.004
   0.06621287  0.02207096  0.02207096       0.004
   0.11035479  0.02207096  0.02207096       0.004
   0.15449671  0.02207096  0.02207096       0.004
  -0.15449671  0.02207096  0.02207096       0.004
  -0.11035479  0.02207096  0.02207096       0.004
  -0.06621287  0.02207096  0.02207096       0.004
  -0.02207096  0.02207096  0.02207096       0.004
   0.02207096  0.06621287  0.02207096       0.004
   0.06621287  0.06621287  0.02207096       0.004
   0.11035479  0.06621287  0.02207096       0.004
   0.15449671  0.06621287  0.02207096       0.004
  -0.15449671  0.06621287  0.02207096       0.004
  -0.11035479  0.06621287  0.02207096       0.004
  -0.06621287  0.06621287  0.02207096       0.004
  -0.02207096  0.06621287  0.02207096       0.004
   0.02207096  0.11035479  0.02207096       0.004
   0.06621287  0.11035479  0.02207096       0.004
   0.11035479  0.11035479  0.02207096       0.004
   0.15449671  0.11035479  0.02207096       0.004
  -0.15449671  0.11035479  0.02207096       0.004
  -0.11035479  0.11035479  0.02207096       0.004
  -0.06621287  0.11035479  0.02207096       0.004
  -0.02207096  0.11035479  0.02207096       0.004
   0.02207096  0.15449671  0.02207096       0.004
   0.06621287  0.15449671  0.02207096       0.004
   0.11035479  0.15449671  0.02207096       0.004
   0.15449671  0.15449671  0.02207096       0.004
  -0.15449671  0.15449671  0.02207096       0.004
  -0.11035479  0.15449671  0.02207096       0.004
  -0.06621287  0.15449671  0.02207096       0.004
  -0.02207096  0.15449671  0.02207096       0.004
   0.02207096 -0.15449671  0.02207096       0.004
   0.06621287 -0.15449671  0.02207096       0.004
   0.11035479 -0.15449671  0.02207096       0.004
   0.15449671 -0.15449671  0.02207096       0.004
  -0.15449671 -0.15449671  0.02207096       0.004
  -0.11035479 -0.15449671  0.02207096       0.004
  -0.06621287 -0.15449671  0.02207096       0.004
  -0.02207096 -0.15449671  0.02207096       0.004
   0.02207096 -0.11035479  0.02207096       0.004
   0.06621287 -0.11035479  0.02207096       0.004
   0.11035479 -0.11035479  0.02207096       0.004
   0.15449671 -0.11035479  0.02207096       0.004
  -0.15449671 -0.11035479  0.02207096       0.004
  -0.11035479 -0.11035479  0.02207096       0.004
  -0.06621287 -0.11035479  0.02207096       0.004
  -0.02207096 -0.11035479  0.02207096       0.004
   0.02207096 -0.06621287  0.02207096       0.004
   0.06621287 -0.06621287  0.02207096       0.004
   0.11035479 -0.06621287  0.02207096       0.004
   0.15449671 -0.06621287  0.02207096       0.004
  -0.15449671 -0.06621287  0.02207096       0.004
  -0.11035479 -0.06621287  0.02207096       0.004
  -0.06621287 -0.06621287  0.02207096       0.004
  -0.02207096 -0.06621287  0.02207096       0.004
   0.02207096 -0.02207096  0.02207096       0.004
   0.06621287 -0.02207096  0.02207096       0.004
   0.11035479 -0.02207096  0.02207096       0.004
   0.15449671 -0.02207096  0.02207096       0.004
  -0.15449671 -0.02207096  0.02207096       0.004
  -0.11035479 -0.02207096  0.02207096       0.004
  -0.06621287 -0.02207096  0.02207096       0.004
  -0.02207096 -0.02207096  0.02207096       0.004
   0.02207096  0.02207096  0.06621287       0.004
   0.06621287  0.02207096  0.06621287       0.004
   0.11035479  0.02207096  0.06621287       0.004
   0.15449671  0.02207096  0.06621287       0.004
  -0.15449671  0.02207096  0.06621287       0.004
  -0.11035479  0.02207096  0.06621287       0.004
  -0.06621287  0.02207096  0.06621287       0.004
  -0.02207096  0.02207096  0.06621287       0.004
   0.02207096  0.06621287  0.06621287       0.004
   0.06621287  0.06621287  0.06621287       0.004
   0.11035479  0.06621287  0.06621287       0.004
   0.15449671  0.06621287  0.06621287       0.004
  -0.15449671  0.06621287  0.06621287       0.004
  -0.11035479  0.06621287  0.06621287       0.004
  -0.06621287  0.06621287  0.06621287       0.004
  -0.02207096  0.06621287  0.06621287       0.004
   0.02207096  0.11035479  0.06621287       0.004
   0.06621287  0.11035479  0.06621287       0.004
   0.11035479  0.11035479  0.06621287       0.004
   0.15449671  0.11035479  0.06621287       0.004
  -0.15449671  0.11035479  0.06621287       0.004
  -0.11035479  0.11035479  0.06621287       0.004
  -0.06621287  0.11035479  0.06621287       0.004
  -0.02207096  0.11035479  0.06621287       0.004
   0.02207096  0.15449671  0.06621287       0.004
   0.06621287  0.15449671  0.06621287       0.004
   0.11035479  0.15449671  0.06621287       0.004
   0.15449671  0.15449671  0.06621287       0.004
  -0.15449671  0.15449671  0.06621287       0.004
  -0.11035479  0.15449671  0.06621287       0.004
  -0.06621287  0.15449671  0.06621287       0.004
  -0.02207096  0.15449671  0.06621287       0.004
   0.02207096 -0.15449671  0.06621287       0.004
   0.06621287 -0.15449671  0.06621287       0.004
   0.11035479 -0.15449671  0.06621287       0.004
   0.15449671 -0.15449671  0.06621287       0.004
  -0.15449671 -0.15449671  0.06621287       0.004
  -0.11035479 -0.15449671  0.06621287       0.004
  -0.06621287 -0.15449671  0.06621287       0.004
  -0.02207096 -0.15449671  0.06621287       0.004
   0.02207096 -0.11035479  0.06621287       0.004
   0.06621287 -0.11035479  0.06621287       0.004
   0.11035479 -0.11035479  0.06621287       0.004
   0.15449671 -0.11035479  0.06621287       0.004
  -0.15449671 -0.11035479  0.06621287       0.004
  -0.11035479 -0.11035479  0.06621287       0.004
  -0.06621287 -0.11035479  0.06621287       0.004
  -0.02207096 -0.11035479  0.06621287       0.004
   0.02207096 -0.06621287  0.06621287       0.004
   0.06621287 -0.06621287  0.06621287       0.004
   0.11035479 -0.06621287  0.06621287       0.004
   0.15449671 -0.06621287  0.06621287       0.004
  -0.15449671 -0.06621287  0.06621287       0.004
  -0.11035479 -0.06621287  0.06621287       0.004
  -0.06621287 -0.06621287  0.06621287       0.004
  -0.02207096 -0.06621287  0.06621287       0.004
   0.02207096 -0.02207096  0.06621287       0.004
   0.06621287 -0.02207096  0.06621287       0.004
   0.11035479 -0.02207096  0.06621287       0.004
   0.15449671 -0.02207096  0.06621287       0.004
  -0.15449671 -0.02207096  0.06621287       0.004
  -0.11035479 -0.02207096  0.06621287       0.004
  -0.06621287 -0.02207096  0.06621287       0.004
  -0.02207096 -0.02207096  0.06621287       0.004
   0.02207096  0.02207096  0.11035479       0.004
   0.06621287  0.02207096  0.11035479       0.004
   0.11035479  0.02207096  0.11035479       0.004
   0.15449671  0.02207096  0.11035479       0.004
  -0.15449671  0.02207096  0.11035479       0.004
  -0.11035479  0.02207096  0.11035479       0.004
  -0.06621287  0.02207096  0.11035479       0.004
  -0.02207096  0.02207096  0.11035479       0.004
   0.02207096  0.06621287  0.11035479       0.004
   0.06621287  0.06621287  0.11035479       0.004
   0.11035479  0.06621287  0.11035479       0.004
   0.15449671  0.06621287  0.11035479       0.004
  -0.15449671  0.06621287  0.11035479       0.004
  -0.11035479  0.06621287  0.11035479       0.004
  -0.06621287  0.06621287  0.11035479       0.004
  -0.02207096  0.06621287  0.11035479       0.004
   0.02207096  0.11035479  0.11035479       0.004
   0.06621287  0.11035479  0.11035479       0.004
   0.11035479  0.11035479  0.11035479       0.004
   0.15449671  0.11035479  0.11035479       0.004
  -0.15449671  0.11035479  0.11035479       0.004
  -0.11035479  0.11035479  0.11035479       0.004
  -0.06621287  0.11035479  0.11035479       0.004
  -0.02207096  0.11035479  0.11035479       0.004
   0.02207096  0.15449671  0.11035479       0.004
   0.06621287  0.15449671  0.11035479       0.004
   0.11035479  0.15449671  0.11035479       0.004
   0.15449671  0.15449671  0.11035479       0.004
  -0.15449671  0.15449671  0.11035479       0.004
  -0.11035479  0.15449671  0.11035479       0.004
  -0.06621287  0.15449671  0.11035479       0.004
  -0.02207096  0.15449671  0.11035479       0.004
   0.02207096 -0.15449671  0.11035479       0.004
   0.06621287 -0.15449671  0.11035479       0.004
   0.11035479 -0.15449671  0.11035479       0.004
   0.15449671 -0.15449671  0.11035479       0.004
  -0.15449671 -0.15449671  0.11035479       0.004
  -0.11035479 -0.15449671  0.11035479       0.004
  -0.06621287 -0.15449671  0.11035479       0.004
  -0.02207096 -0.15449671  0.11035479       0.004
   0.02207096 -0.11035479  0.11035479       0.004
   0.06621287 -0.11035479  0.11035479       0.004
   0.11035479 -0.11035479  0.11035479       0.004
   0.15449671 -0.11035479  0.11035479       0.004
  -0.15449671 -0.11035479  0.11035479       0.004
  -0.11035479 -0.11035479  0.11035479       0.004
  -0.06621287 -0.11035479  0.11035479       0.004
  -0.02207096 -0.11035479  0.11035479       0.004
   0.02207096 -0.06621287  0.11035479       0.004
   0.06621287 -0.06621287  0.11035479       0.004
   0.11035479 -0.06621287  0.11035479       0.004
   0.15449671 -0.06621287  0.11035479       0.004
  -0.15449671 -0.06621287  0.11035479       0.004
  -0.11035479 -0.06621287  0.11035479       0.004
  -0.06621287 -0.06621287  0.11035479       0.004
  -0.02207096 -0.06621287  0.11035479       0.004
   0.02207096 -0.02207096  0.11035479       0.004
   0.06621287 -0.02207096  0.11035479       0.004
   0.11035479 -0.02207096  0.11035479       0.004
   0.15449671 -0.02207096  0.11035479       0.004
  -0.15449671 -0.02207096  0.11035479       0.004
  -0.11035479 -0.02207096  0.11035479       0.004
  -0.06621287 -0.02207096  0.11035479       0.004
  -0.02207096 -0.02207096  0.11035479       0.004
   0.02207096  0.02207096  0.15449671       0.004
   0.06621287  0.02207096  0.15449671       0.004
   0.11035479  0.02207096  0.15449671       0.004
   0.15449671  0.02207096  0.15449671       0.004
  -0.15449671  0.02207096  0.15449671       0.004
  -0.11035479  0.02207096  0.15449671       0.004
  -0.06621287  0.02207096  0.15449671       0.004
  -0.02207096  0.02207096  0.15449671       0.004
   0.02207096  0.06621287  0.15449671       0.004
   0.06621287  0.06621287  0.15449671       0.004
   0.11035479  0.06621287  0.15449671       0.004
   0.15449671  0.06621287  0.15449671       0.004
  -0.15449671  0.06621287  0.15449671       0.004
  -0.11035479  0.06621287  0.15449671       0.004
  -0.06621287  0.06621287  0.15449671       0.004
  -0.02207096  0.06621287  0.15449671       0.004
   0.02207096  0.11035479  0.15449671       0.004
   0.06621287  0.11035479  0.15449671       0.004
   0.11035479  0.11035479  0.15449671       0.004
   0.15449671  0.11035479  0.15449671       0.004
  -0.15449671  0.11035479  0.15449671       0.004
  -0.11035479  0.11035479  0.15449671       0.004
  -0.06621287  0.11035479  0.15449671       0.004
  -0.02207096  0.11035479  0.15449671       0.004
   0.02207096  0.15449671  0.15449671       0.004
   0.06621287  0.15449671  0.15449671       0.004
   0.11035479  0.15449671  0.15449671       0.004
   0.15449671  0.15449671  0.15449671       0.004
  -0.15449671  0.15449671  0.15449671       0.004
  -0.11035479  0.15449671  0.15449671       0.004
  -0.06621287  0.15449671  0.15449671       0.004
  -0.02207096  0.15449671  0.15449671       0.004
   0.02207096 -0.15449671  0.15449671       0.004
   0.06621287 -0.15449671  0.15449671       0.004
   0.11035479 -0.15449671  0.15449671       0.004
   0.15449671 -0.15449671  0.15449671       0.004
  -0.15449671 -0.15449671  0.15449671       0.004
  -0.11035479 -0.15449671  0.15449671       0.004
  -0.06621287 -0.15449671  0.15449671       0.004
  -0.02207096 -0.15449671  0.15449671       0.004
   0.02207096 -0.11035479  0.15449671       0.004
   0.06621287 -0.11035479  0.15449671       0.004
   0.11035479 -0.11035479  0.15449671       0.004
   0.15449671 -0.11035479  0.15449671       0.004
  -0.15449671 -0.11035479  0.15449671       0.004
  -0.11035479 -0.11035479  0.15449671       0.004
  -0.06621287 -0.11035479  0.15449671       0.004
  -0.02207096 -0.11035479  0.15449671       0.004
   0.02207096 -0.06621287  0.15449671       0.004
   0.06621287 -0.06621287  0.15449671       0.004
   0.11035479 -0.06621287  0.15449671       0.004
   0.15449671 -0.06621287  0.15449671       0.004
  -0.15449671 -0.06621287  0.15449671       0.004
  -0.11035479 -0.06621287  0.15449671       0.004
  -0.06621287 -0.06621287  0.15449671       0.004
  -0.02207096 -0.06621287  0.15449671       0.004
   0.02207096 -0.02207096  0.15449671       0.004
   0.06621287 -0.02207096  0.15449671       0.004
   0.11035479 -0.02207096  0.15449671       0.004
   0.15449671 -0.02207096  0.15449671       0.004
  -0.15449671 -0.02207096  0.15449671       0.004
  -0.11035479 -0.02207096  0.15449671       0.004
  -0.06621287 -0.02207096  0.15449671       0.004
  -0.02207096 -0.02207096  0.15449671       0.004
 
 k-points in reciprocal lattice and weights: kptsfl                                  
   0.06250000  0.06250000  0.06250000       0.004
   0.18750000  0.06250000  0.06250000       0.004
   0.31250000  0.06250000  0.06250000       0.004
   0.43750000  0.06250000  0.06250000       0.004
  -0.43750000  0.06250000  0.06250000       0.004
  -0.31250000  0.06250000  0.06250000       0.004
  -0.18750000  0.06250000  0.06250000       0.004
  -0.06250000  0.06250000  0.06250000       0.004
   0.06250000  0.18750000  0.06250000       0.004
   0.18750000  0.18750000  0.06250000       0.004
   0.31250000  0.18750000  0.06250000       0.004
   0.43750000  0.18750000  0.06250000       0.004
  -0.43750000  0.18750000  0.06250000       0.004
  -0.31250000  0.18750000  0.06250000       0.004
  -0.18750000  0.18750000  0.06250000       0.004
  -0.06250000  0.18750000  0.06250000       0.004
   0.06250000  0.31250000  0.06250000       0.004
   0.18750000  0.31250000  0.06250000       0.004
   0.31250000  0.31250000  0.06250000       0.004
   0.43750000  0.31250000  0.06250000       0.004
  -0.43750000  0.31250000  0.06250000       0.004
  -0.31250000  0.31250000  0.06250000       0.004
  -0.18750000  0.31250000  0.06250000       0.004
  -0.06250000  0.31250000  0.06250000       0.004
   0.06250000  0.43750000  0.06250000       0.004
   0.18750000  0.43750000  0.06250000       0.004
   0.31250000  0.43750000  0.06250000       0.004
   0.43750000  0.43750000  0.06250000       0.004
  -0.43750000  0.43750000  0.06250000       0.004
  -0.31250000  0.43750000  0.06250000       0.004
  -0.18750000  0.43750000  0.06250000       0.004
  -0.06250000  0.43750000  0.06250000       0.004
   0.06250000 -0.43750000  0.06250000       0.004
   0.18750000 -0.43750000  0.06250000       0.004
   0.31250000 -0.43750000  0.06250000       0.004
   0.43750000 -0.43750000  0.06250000       0.004
  -0.43750000 -0.43750000  0.06250000       0.004
  -0.31250000 -0.43750000  0.06250000       0.004
  -0.18750000 -0.43750000  0.06250000       0.004
  -0.06250000 -0.43750000  0.06250000       0.004
   0.06250000 -0.31250000  0.06250000       0.004
   0.18750000 -0.31250000  0.06250000       0.004
   0.31250000 -0.31250000  0.06250000       0.004
   0.43750000 -0.31250000  0.06250000       0.004
  -0.43750000 -0.31250000  0.06250000       0.004
  -0.31250000 -0.31250000  0.06250000       0.004
  -0.18750000 -0.31250000  0.06250000       0.004
  -0.06250000 -0.31250000  0.06250000       0.004
   0.06250000 -0.18750000  0.06250000       0.004
   0.18750000 -0.18750000  0.06250000       0.004
   0.31250000 -0.18750000  0.06250000       0.004
   0.43750000 -0.18750000  0.06250000       0.004
  -0.43750000 -0.18750000  0.06250000       0.004
  -0.31250000 -0.18750000  0.06250000       0.004
  -0.18750000 -0.18750000  0.06250000       0.004
  -0.06250000 -0.18750000  0.06250000       0.004
   0.06250000 -0.06250000  0.06250000       0.004
   0.18750000 -0.06250000  0.06250000       0.004
   0.31250000 -0.06250000  0.06250000       0.004
   0.43750000 -0.06250000  0.06250000       0.004
  -0.43750000 -0.06250000  0.06250000       0.004
  -0.31250000 -0.06250000  0.06250000       0.004
  -0.18750000 -0.06250000  0.06250000       0.004
  -0.06250000 -0.06250000  0.06250000       0.004
   0.06250000  0.06250000  0.18750000       0.004
   0.18750000  0.06250000  0.18750000       0.004
   0.31250000  0.06250000  0.18750000       0.004
   0.43750000  0.06250000  0.18750000       0.004
  -0.43750000  0.06250000  0.18750000       0.004
  -0.31250000  0.06250000  0.18750000       0.004
  -0.18750000  0.06250000  0.18750000       0.004
  -0.06250000  0.06250000  0.18750000       0.004
   0.06250000  0.18750000  0.18750000       0.004
   0.18750000  0.18750000  0.18750000       0.004
   0.31250000  0.18750000  0.18750000       0.004
   0.43750000  0.18750000  0.18750000       0.004
  -0.43750000  0.18750000  0.18750000       0.004
  -0.31250000  0.18750000  0.18750000       0.004
  -0.18750000  0.18750000  0.18750000       0.004
  -0.06250000  0.18750000  0.18750000       0.004
   0.06250000  0.31250000  0.18750000       0.004
   0.18750000  0.31250000  0.18750000       0.004
   0.31250000  0.31250000  0.18750000       0.004
   0.43750000  0.31250000  0.18750000       0.004
  -0.43750000  0.31250000  0.18750000       0.004
  -0.31250000  0.31250000  0.18750000       0.004
  -0.18750000  0.31250000  0.18750000       0.004
  -0.06250000  0.31250000  0.18750000       0.004
   0.06250000  0.43750000  0.18750000       0.004
   0.18750000  0.43750000  0.18750000       0.004
   0.31250000  0.43750000  0.18750000       0.004
   0.43750000  0.43750000  0.18750000       0.004
  -0.43750000  0.43750000  0.18750000       0.004
  -0.31250000  0.43750000  0.18750000       0.004
  -0.18750000  0.43750000  0.18750000       0.004
  -0.06250000  0.43750000  0.18750000       0.004
   0.06250000 -0.43750000  0.18750000       0.004
   0.18750000 -0.43750000  0.18750000       0.004
   0.31250000 -0.43750000  0.18750000       0.004
   0.43750000 -0.43750000  0.18750000       0.004
  -0.43750000 -0.43750000  0.18750000       0.004
  -0.31250000 -0.43750000  0.18750000       0.004
  -0.18750000 -0.43750000  0.18750000       0.004
  -0.06250000 -0.43750000  0.18750000       0.004
   0.06250000 -0.31250000  0.18750000       0.004
   0.18750000 -0.31250000  0.18750000       0.004
   0.31250000 -0.31250000  0.18750000       0.004
   0.43750000 -0.31250000  0.18750000       0.004
  -0.43750000 -0.31250000  0.18750000       0.004
  -0.31250000 -0.31250000  0.18750000       0.004
  -0.18750000 -0.31250000  0.18750000       0.004
  -0.06250000 -0.31250000  0.18750000       0.004
   0.06250000 -0.18750000  0.18750000       0.004
   0.18750000 -0.18750000  0.18750000       0.004
   0.31250000 -0.18750000  0.18750000       0.004
   0.43750000 -0.18750000  0.18750000       0.004
  -0.43750000 -0.18750000  0.18750000       0.004
  -0.31250000 -0.18750000  0.18750000       0.004
  -0.18750000 -0.18750000  0.18750000       0.004
  -0.06250000 -0.18750000  0.18750000       0.004
   0.06250000 -0.06250000  0.18750000       0.004
   0.18750000 -0.06250000  0.18750000       0.004
   0.31250000 -0.06250000  0.18750000       0.004
   0.43750000 -0.06250000  0.18750000       0.004
  -0.43750000 -0.06250000  0.18750000       0.004
  -0.31250000 -0.06250000  0.18750000       0.004
  -0.18750000 -0.06250000  0.18750000       0.004
  -0.06250000 -0.06250000  0.18750000       0.004
   0.06250000  0.06250000  0.31250000       0.004
   0.18750000  0.06250000  0.31250000       0.004
   0.31250000  0.06250000  0.31250000       0.004
   0.43750000  0.06250000  0.31250000       0.004
  -0.43750000  0.06250000  0.31250000       0.004
  -0.31250000  0.06250000  0.31250000       0.004
  -0.18750000  0.06250000  0.31250000       0.004
  -0.06250000  0.06250000  0.31250000       0.004
   0.06250000  0.18750000  0.31250000       0.004
   0.18750000  0.18750000  0.31250000       0.004
   0.31250000  0.18750000  0.31250000       0.004
   0.43750000  0.18750000  0.31250000       0.004
  -0.43750000  0.18750000  0.31250000       0.004
  -0.31250000  0.18750000  0.31250000       0.004
  -0.18750000  0.18750000  0.31250000       0.004
  -0.06250000  0.18750000  0.31250000       0.004
   0.06250000  0.31250000  0.31250000       0.004
   0.18750000  0.31250000  0.31250000       0.004
   0.31250000  0.31250000  0.31250000       0.004
   0.43750000  0.31250000  0.31250000       0.004
  -0.43750000  0.31250000  0.31250000       0.004
  -0.31250000  0.31250000  0.31250000       0.004
  -0.18750000  0.31250000  0.31250000       0.004
  -0.06250000  0.31250000  0.31250000       0.004
   0.06250000  0.43750000  0.31250000       0.004
   0.18750000  0.43750000  0.31250000       0.004
   0.31250000  0.43750000  0.31250000       0.004
   0.43750000  0.43750000  0.31250000       0.004
  -0.43750000  0.43750000  0.31250000       0.004
  -0.31250000  0.43750000  0.31250000       0.004
  -0.18750000  0.43750000  0.31250000       0.004
  -0.06250000  0.43750000  0.31250000       0.004
   0.06250000 -0.43750000  0.31250000       0.004
   0.18750000 -0.43750000  0.31250000       0.004
   0.31250000 -0.43750000  0.31250000       0.004
   0.43750000 -0.43750000  0.31250000       0.004
  -0.43750000 -0.43750000  0.31250000       0.004
  -0.31250000 -0.43750000  0.31250000       0.004
  -0.18750000 -0.43750000  0.31250000       0.004
  -0.06250000 -0.43750000  0.31250000       0.004
   0.06250000 -0.31250000  0.31250000       0.004
   0.18750000 -0.31250000  0.31250000       0.004
   0.31250000 -0.31250000  0.31250000       0.004
   0.43750000 -0.31250000  0.31250000       0.004
  -0.43750000 -0.31250000  0.31250000       0.004
  -0.31250000 -0.31250000  0.31250000       0.004
  -0.18750000 -0.31250000  0.31250000       0.004
  -0.06250000 -0.31250000  0.31250000       0.004
   0.06250000 -0.18750000  0.31250000       0.004
   0.18750000 -0.18750000  0.31250000       0.004
   0.31250000 -0.18750000  0.31250000       0.004
   0.43750000 -0.18750000  0.31250000       0.004
  -0.43750000 -0.18750000  0.31250000       0.004
  -0.31250000 -0.18750000  0.31250000       0.004
  -0.18750000 -0.18750000  0.31250000       0.004
  -0.06250000 -0.18750000  0.31250000       0.004
   0.06250000 -0.06250000  0.31250000       0.004
   0.18750000 -0.06250000  0.31250000       0.004
   0.31250000 -0.06250000  0.31250000       0.004
   0.43750000 -0.06250000  0.31250000       0.004
  -0.43750000 -0.06250000  0.31250000       0.004
  -0.31250000 -0.06250000  0.31250000       0.004
  -0.18750000 -0.06250000  0.31250000       0.004
  -0.06250000 -0.06250000  0.31250000       0.004
   0.06250000  0.06250000  0.43750000       0.004
   0.18750000  0.06250000  0.43750000       0.004
   0.31250000  0.06250000  0.43750000       0.004
   0.43750000  0.06250000  0.43750000       0.004
  -0.43750000  0.06250000  0.43750000       0.004
  -0.31250000  0.06250000  0.43750000       0.004
  -0.18750000  0.06250000  0.43750000       0.004
  -0.06250000  0.06250000  0.43750000       0.004
   0.06250000  0.18750000  0.43750000       0.004
   0.18750000  0.18750000  0.43750000       0.004
   0.31250000  0.18750000  0.43750000       0.004
   0.43750000  0.18750000  0.43750000       0.004
  -0.43750000  0.18750000  0.43750000       0.004
  -0.31250000  0.18750000  0.43750000       0.004
  -0.18750000  0.18750000  0.43750000       0.004
  -0.06250000  0.18750000  0.43750000       0.004
   0.06250000  0.31250000  0.43750000       0.004
   0.18750000  0.31250000  0.43750000       0.004
   0.31250000  0.31250000  0.43750000       0.004
   0.43750000  0.31250000  0.43750000       0.004
  -0.43750000  0.31250000  0.43750000       0.004
  -0.31250000  0.31250000  0.43750000       0.004
  -0.18750000  0.31250000  0.43750000       0.004
  -0.06250000  0.31250000  0.43750000       0.004
   0.06250000  0.43750000  0.43750000       0.004
   0.18750000  0.43750000  0.43750000       0.004
   0.31250000  0.43750000  0.43750000       0.004
   0.43750000  0.43750000  0.43750000       0.004
  -0.43750000  0.43750000  0.43750000       0.004
  -0.31250000  0.43750000  0.43750000       0.004
  -0.18750000  0.43750000  0.43750000       0.004
  -0.06250000  0.43750000  0.43750000       0.004
   0.06250000 -0.43750000  0.43750000       0.004
   0.18750000 -0.43750000  0.43750000       0.004
   0.31250000 -0.43750000  0.43750000       0.004
   0.43750000 -0.43750000  0.43750000       0.004
  -0.43750000 -0.43750000  0.43750000       0.004
  -0.31250000 -0.43750000  0.43750000       0.004
  -0.18750000 -0.43750000  0.43750000       0.004
  -0.06250000 -0.43750000  0.43750000       0.004
   0.06250000 -0.31250000  0.43750000       0.004
   0.18750000 -0.31250000  0.43750000       0.004
   0.31250000 -0.31250000  0.43750000       0.004
   0.43750000 -0.31250000  0.43750000       0.004
  -0.43750000 -0.31250000  0.43750000       0.004
  -0.31250000 -0.31250000  0.43750000       0.004
  -0.18750000 -0.31250000  0.43750000       0.004
  -0.06250000 -0.31250000  0.43750000       0.004
   0.06250000 -0.18750000  0.43750000       0.004
   0.18750000 -0.18750000  0.43750000       0.004
   0.31250000 -0.18750000  0.43750000       0.004
   0.43750000 -0.18750000  0.43750000       0.004
  -0.43750000 -0.18750000  0.43750000       0.004
  -0.31250000 -0.18750000  0.43750000       0.004
  -0.18750000 -0.18750000  0.43750000       0.004
  -0.06250000 -0.18750000  0.43750000       0.004
   0.06250000 -0.06250000  0.43750000       0.004
   0.18750000 -0.06250000  0.43750000       0.004
   0.31250000 -0.06250000  0.43750000       0.004
   0.43750000 -0.06250000  0.43750000       0.004
  -0.43750000 -0.06250000  0.43750000       0.004
  -0.31250000 -0.06250000  0.43750000       0.004
  -0.18750000 -0.06250000  0.43750000       0.004
  -0.06250000 -0.06250000  0.43750000       0.004
 
 position of ions in fractional coordinates (direct lattice) 
   0.50000000  0.50000000  0.50000000
   0.00000000  0.00000000  0.00000000
 
 position of ions in cartesian coordinates  (Angst):
   1.41588779  1.41588779  1.41588779
   0.00000000  0.00000000  0.00000000
 


--------------------------------------------------------------------------------------------------------


 k-point  1 :   0.0625 0.0625 0.0625  plane waves:     585
 k-point  2 :   0.1875 0.0625 0.0625  plane waves:     569
 k-point  3 :   0.3125 0.0625 0.0625  plane waves:     575
 k-point  4 :   0.4375 0.0625 0.0625  plane waves:     578
 k-point  5 :  -0.4375 0.0625 0.0625  plane waves:     578
 k-point  6 :  -0.3125 0.0625 0.0625  plane waves:     575
 k-point  7 :  -0.1875 0.0625 0.0625  plane waves:     569
 k-point  8 :  -0.0625 0.0625 0.0625  plane waves:     585
 k-point  9 :   0.0625 0.1875 0.0625  plane waves:     569
 k-point 10 :   0.1875 0.1875 0.0625  plane waves:     570
 k-point 11 :   0.3125 0.1875 0.0625  plane waves:     574
 k-point 12 :   0.4375 0.1875 0.0625  plane waves:     578
 k-point 13 :  -0.4375 0.1875 0.0625  plane waves:     578
 k-point 14 :  -0.3125 0.1875 0.0625  plane waves:     574
 k-point 15 :  -0.1875 0.1875 0.0625  plane waves:     570
 k-point 16 :  -0.0625 0.1875 0.0625  plane waves:     569
 k-point 17 :   0.0625 0.3125 0.0625  plane waves:     575
 k-point 18 :   0.1875 0.3125 0.0625  plane waves:     574
 k-point 19 :   0.3125 0.3125 0.0625  plane waves:     576
 k-point 20 :   0.4375 0.3125 0.0625  plane waves:     577
 k-point 21 :  -0.4375 0.3125 0.0625  plane waves:     577
 k-point 22 :  -0.3125 0.3125 0.0625  plane waves:     576
 k-point 23 :  -0.1875 0.3125 0.0625  plane waves:     574
 k-point 24 :  -0.0625 0.3125 0.0625  plane waves:     575
 k-point 25 :   0.0625 0.4375 0.0625  plane waves:     578
 k-point 26 :   0.1875 0.4375 0.0625  plane waves:     578
 k-point 27 :   0.3125 0.4375 0.0625  plane waves:     577
 k-point 28 :   0.4375 0.4375 0.0625  plane waves:     572
 k-point 29 :  -0.4375 0.4375 0.0625  plane waves:     572
 k-point 30 :  -0.3125 0.4375 0.0625  plane waves:     577
 k-point 31 :  -0.1875 0.4375 0.0625  plane waves:     578
 k-point 32 :  -0.0625 0.4375 0.0625  plane waves:     578
 k-point 33 :   0.0625-0.4375 0.0625  plane waves:     578
 k-point 34 :   0.1875-0.4375 0.0625  plane waves:     578
 k-point 35 :   0.3125-0.4375 0.0625  plane waves:     577
 k-point 36 :   0.4375-0.4375 0.0625  plane waves:     572
 k-point 37 :  -0.4375-0.4375 0.0625  plane waves:     572
 k-point 38 :  -0.3125-0.4375 0.0625  plane waves:     577
 k-point 39 :  -0.1875-0.4375 0.0625  plane waves:     578
 k-point 40 :  -0.0625-0.4375 0.0625  plane waves:     578
 k-point 41 :   0.0625-0.3125 0.0625  plane waves:     575
 k-point 42 :   0.1875-0.3125 0.0625  plane waves:     574
 k-point 43 :   0.3125-0.3125 0.0625  plane waves:     576
 k-point 44 :   0.4375-0.3125 0.0625  plane waves:     577
 k-point 45 :  -0.4375-0.3125 0.0625  plane waves:     577
 k-point 46 :  -0.3125-0.3125 0.0625  plane waves:     576
 k-point 47 :  -0.1875-0.3125 0.0625  plane waves:     574
 k-point 48 :  -0.0625-0.3125 0.0625  plane waves:     575
 k-point 49 :   0.0625-0.1875 0.0625  plane waves:     569
 k-point 50 :   0.1875-0.1875 0.0625  plane waves:     570
 k-point 51 :   0.3125-0.1875 0.0625  plane waves:     574
 k-point 52 :   0.4375-0.1875 0.0625  plane waves:     578
 k-point 53 :  -0.4375-0.1875 0.0625  plane waves:     578
 k-point 54 :  -0.3125-0.1875 0.0625  plane waves:     574
 k-point 55 :  -0.1875-0.1875 0.0625  plane waves:     570
 k-point 56 :  -0.0625-0.1875 0.0625  plane waves:     569
 k-point 57 :   0.0625-0.0625 0.0625  plane waves:     585
 k-point 58 :   0.1875-0.0625 0.0625  plane waves:     569
 k-point 59 :   0.3125-0.0625 0.0625  plane waves:     575
 k-point 60 :   0.4375-0.0625 0.0625  plane waves:     578
 k-point 61 :  -0.4375-0.0625 0.0625  plane waves:     578
 k-point 62 :  -0.3125-0.0625 0.0625  plane waves:     575
 k-point 63 :  -0.1875-0.0625 0.0625  plane waves:     569
 k-point 64 :  -0.0625-0.0625 0.0625  plane waves:     585
 k-point 65 :   0.0625 0.0625 0.1875  plane waves:     569
 k-point 66 :   0.1875 0.0625 0.1875  plane waves:     570
 k-point 67 :   0.3125 0.0625 0.1875  plane waves:     574
 k-point 68 :   0.4375 0.0625 0.1875  plane waves:     578
 k-point 69 :  -0.4375 0.0625 0.1875  plane waves:     578
 k-point 70 :  -0.3125 0.0625 0.1875  plane waves:     574
 k-point 71 :  -0.1875 0.0625 0.1875  plane waves:     570
 k-point 72 :  -0.0625 0.0625 0.1875  plane waves:     569
 k-point 73 :   0.0625 0.1875 0.1875  plane waves:     570
 k-point 74 :   0.1875 0.1875 0.1875  plane waves:     573
 k-point 75 :   0.3125 0.1875 0.1875  plane waves:     574
 k-point 76 :   0.4375 0.1875 0.1875  plane waves:     574
 k-point 77 :  -0.4375 0.1875 0.1875  plane waves:     574
 k-point 78 :  -0.3125 0.1875 0.1875  plane waves:     574
 k-point 79 :  -0.1875 0.1875 0.1875  plane waves:     573
 k-point 80 :  -0.0625 0.1875 0.1875  plane waves:     570
 k-point 81 :   0.0625 0.3125 0.1875  plane waves:     574
 k-point 82 :   0.1875 0.3125 0.1875  plane waves:     574
 k-point 83 :   0.3125 0.3125 0.1875  plane waves:     580
 k-point 84 :   0.4375 0.3125 0.1875  plane waves:     576
 k-point 85 :  -0.4375 0.3125 0.1875  plane waves:     576
 k-point 86 :  -0.3125 0.3125 0.1875  plane waves:     580
 k-point 87 :  -0.1875 0.3125 0.1875  plane waves:     574
 k-point 88 :  -0.0625 0.3125 0.1875  plane waves:     574
 k-point 89 :   0.0625 0.4375 0.1875  plane waves:     578
 k-point 90 :   0.1875 0.4375 0.1875  plane waves:     574
 k-point 91 :   0.3125 0.4375 0.1875  plane waves:     576
 k-point 92 :   0.4375 0.4375 0.1875  plane waves:     580
 k-point 93 :  -0.4375 0.4375 0.1875  plane waves:     580
 k-point 94 :  -0.3125 0.4375 0.1875  plane waves:     576
 k-point 95 :  -0.1875 0.4375 0.1875  plane waves:     574
 k-point 96 :  -0.0625 0.4375 0.1875  plane waves:     578
 k-point 97 :   0.0625-0.4375 0.1875  plane waves:     578
 k-point 98 :   0.1875-0.4375 0.1875  plane waves:     574
 k-point 99 :   0.3125-0.4375 0.1875  plane waves:     576
 k-point ** :   0.4375-0.4375 0.1875  plane waves:     580
 k-point ** :  -0.4375-0.4375 0.1875  plane waves:     580
 k-point ** :  -0.3125-0.4375 0.1875  plane waves:     576
 k-point ** :  -0.1875-0.4375 0.1875  plane waves:     574
 k-point ** :  -0.0625-0.4375 0.1875  plane waves:     578
 k-point ** :   0.0625-0.3125 0.1875  plane waves:     574
 k-point ** :   0.1875-0.3125 0.1875  plane waves:     574
 k-point ** :   0.3125-0.3125 0.1875  plane waves:     580
 k-point ** :   0.4375-0.3125 0.1875  plane waves:     576
 k-point ** :  -0.4375-0.3125 0.1875  plane waves:     576
 k-point ** :  -0.3125-0.3125 0.1875  plane waves:     580
 k-point ** :  -0.1875-0.3125 0.1875  plane waves:     574
 k-point ** :  -0.0625-0.3125 0.1875  plane waves:     574
 k-point ** :   0.0625-0.1875 0.1875  plane waves:     570
 k-point ** :   0.1875-0.1875 0.1875  plane waves:     573
 k-point ** :   0.3125-0.1875 0.1875  plane waves:     574
 k-point ** :   0.4375-0.1875 0.1875  plane waves:     574
 k-point ** :  -0.4375-0.1875 0.1875  plane waves:     574
 k-point ** :  -0.3125-0.1875 0.1875  plane waves:     574
 k-point ** :  -0.1875-0.1875 0.1875  plane waves:     573
 k-point ** :  -0.0625-0.1875 0.1875  plane waves:     570
 k-point ** :   0.0625-0.0625 0.1875  plane waves:     569
 k-point ** :   0.1875-0.0625 0.1875  plane waves:     570
 k-point ** :   0.3125-0.0625 0.1875  plane waves:     574
 k-point ** :   0.4375-0.0625 0.1875  plane waves:     578
 k-point ** :  -0.4375-0.0625 0.1875  plane waves:     578
 k-point ** :  -0.3125-0.0625 0.1875  plane waves:     574
 k-point ** :  -0.1875-0.0625 0.1875  plane waves:     570
 k-point ** :  -0.0625-0.0625 0.1875  plane waves:     569
 k-point ** :   0.0625 0.0625 0.3125  plane waves:     575
 k-point ** :   0.1875 0.0625 0.3125  plane waves:     574
 k-point ** :   0.3125 0.0625 0.3125  plane waves:     576
 k-point ** :   0.4375 0.0625 0.3125  plane waves:     577
 k-point ** :  -0.4375 0.0625 0.3125  plane waves:     577
 k-point ** :  -0.3125 0.0625 0.3125  plane waves:     576
 k-point ** :  -0.1875 0.0625 0.3125  plane waves:     574
 k-point ** :  -0.0625 0.0625 0.3125  plane waves:     575
 k-point ** :   0.0625 0.1875 0.3125  plane waves:     574
 k-point ** :   0.1875 0.1875 0.3125  plane waves:     574
 k-point ** :   0.3125 0.1875 0.3125  plane waves:     580
 k-point ** :   0.4375 0.1875 0.3125  plane waves:     576
 k-point ** :  -0.4375 0.1875 0.3125  plane waves:     576
 k-point ** :  -0.3125 0.1875 0.3125  plane waves:     580
 k-point ** :  -0.1875 0.1875 0.3125  plane waves:     574
 k-point ** :  -0.0625 0.1875 0.3125  plane waves:     574
 k-point ** :   0.0625 0.3125 0.3125  plane waves:     576
 k-point ** :   0.1875 0.3125 0.3125  plane waves:     580
 k-point ** :   0.3125 0.3125 0.3125  plane waves:     582
 k-point ** :   0.4375 0.3125 0.3125  plane waves:     581
 k-point ** :  -0.4375 0.3125 0.3125  plane waves:     581
 k-point ** :  -0.3125 0.3125 0.3125  plane waves:     582
 k-point ** :  -0.1875 0.3125 0.3125  plane waves:     580
 k-point ** :  -0.0625 0.3125 0.3125  plane waves:     576
 k-point ** :   0.0625 0.4375 0.3125  plane waves:     577
 k-point ** :   0.1875 0.4375 0.3125  plane waves:     576
 k-point ** :   0.3125 0.4375 0.3125  plane waves:     581
 k-point ** :   0.4375 0.4375 0.3125  plane waves:     586
 k-point ** :  -0.4375 0.4375 0.3125  plane waves:     586
 k-point ** :  -0.3125 0.4375 0.3125  plane waves:     581
 k-point ** :  -0.1875 0.4375 0.3125  plane waves:     576
 k-point ** :  -0.0625 0.4375 0.3125  plane waves:     577
 k-point ** :   0.0625-0.4375 0.3125  plane waves:     577
 k-point ** :   0.1875-0.4375 0.3125  plane waves:     576
 k-point ** :   0.3125-0.4375 0.3125  plane waves:     581
 k-point ** :   0.4375-0.4375 0.3125  plane waves:     586
 k-point ** :  -0.4375-0.4375 0.3125  plane waves:     586
 k-point ** :  -0.3125-0.4375 0.3125  plane waves:     581
 k-point ** :  -0.1875-0.4375 0.3125  plane waves:     576
 k-point ** :  -0.0625-0.4375 0.3125  plane waves:     577
 k-point ** :   0.0625-0.3125 0.3125  plane waves:     576
 k-point ** :   0.1875-0.3125 0.3125  plane waves:     580
 k-point ** :   0.3125-0.3125 0.3125  plane waves:     582
 k-point ** :   0.4375-0.3125 0.3125  plane waves:     581
 k-point ** :  -0.4375-0.3125 0.3125  plane waves:     581
 k-point ** :  -0.3125-0.3125 0.3125  plane waves:     582
 k-point ** :  -0.1875-0.3125 0.3125  plane waves:     580
 k-point ** :  -0.0625-0.3125 0.3125  plane waves:     576
 k-point ** :   0.0625-0.1875 0.3125  plane waves:     574
 k-point ** :   0.1875-0.1875 0.3125  plane waves:     574
 k-point ** :   0.3125-0.1875 0.3125  plane waves:     580
 k-point ** :   0.4375-0.1875 0.3125  plane waves:     576
 k-point ** :  -0.4375-0.1875 0.3125  plane waves:     576
 k-point ** :  -0.3125-0.1875 0.3125  plane waves:     580
 k-point ** :  -0.1875-0.1875 0.3125  plane waves:     574
 k-point ** :  -0.0625-0.1875 0.3125  plane waves:     574
 k-point ** :   0.0625-0.0625 0.3125  plane waves:     575
 k-point ** :   0.1875-0.0625 0.3125  plane waves:     574
 k-point ** :   0.3125-0.0625 0.3125  plane waves:     576
 k-point ** :   0.4375-0.0625 0.3125  plane waves:     577
 k-point ** :  -0.4375-0.0625 0.3125  plane waves:     577
 k-point ** :  -0.3125-0.0625 0.3125  plane waves:     576
 k-point ** :  -0.1875-0.0625 0.3125  plane waves:     574
 k-point ** :  -0.0625-0.0625 0.3125  plane waves:     575
 k-point ** :   0.0625 0.0625 0.4375  plane waves:     578
 k-point ** :   0.1875 0.0625 0.4375  plane waves:     578
 k-point ** :   0.3125 0.0625 0.4375  plane waves:     577
 k-point ** :   0.4375 0.0625 0.4375  plane waves:     572
 k-point ** :  -0.4375 0.0625 0.4375  plane waves:     572
 k-point ** :  -0.3125 0.0625 0.4375  plane waves:     577
 k-point ** :  -0.1875 0.0625 0.4375  plane waves:     578
 k-point ** :  -0.0625 0.0625 0.4375  plane waves:     578
 k-point ** :   0.0625 0.1875 0.4375  plane waves:     578
 k-point ** :   0.1875 0.1875 0.4375  plane waves:     574
 k-point ** :   0.3125 0.1875 0.4375  plane waves:     576
 k-point ** :   0.4375 0.1875 0.4375  plane waves:     580
 k-point ** :  -0.4375 0.1875 0.4375  plane waves:     580
 k-point ** :  -0.3125 0.1875 0.4375  plane waves:     576
 k-point ** :  -0.1875 0.1875 0.4375  plane waves:     574
 k-point ** :  -0.0625 0.1875 0.4375  plane waves:     578
 k-point ** :   0.0625 0.3125 0.4375  plane waves:     577
 k-point ** :   0.1875 0.3125 0.4375  plane waves:     576
 k-point ** :   0.3125 0.3125 0.4375  plane waves:     581
 k-point ** :   0.4375 0.3125 0.4375  plane waves:     586
 k-point ** :  -0.4375 0.3125 0.4375  plane waves:     586
 k-point ** :  -0.3125 0.3125 0.4375  plane waves:     581
 k-point ** :  -0.1875 0.3125 0.4375  plane waves:     576
 k-point ** :  -0.0625 0.3125 0.4375  plane waves:     577
 k-point ** :   0.0625 0.4375 0.4375  plane waves:     572
 k-point ** :   0.1875 0.4375 0.4375  plane waves:     580
 k-point ** :   0.3125 0.4375 0.4375  plane waves:     586
 k-point ** :   0.4375 0.4375 0.4375  plane waves:     588
 k-point ** :  -0.4375 0.4375 0.4375  plane waves:     588
 k-point ** :  -0.3125 0.4375 0.4375  plane waves:     586
 k-point ** :  -0.1875 0.4375 0.4375  plane waves:     580
 k-point ** :  -0.0625 0.4375 0.4375  plane waves:     572
 k-point ** :   0.0625-0.4375 0.4375  plane waves:     572
 k-point ** :   0.1875-0.4375 0.4375  plane waves:     580
 k-point ** :   0.3125-0.4375 0.4375  plane waves:     586
 k-point ** :   0.4375-0.4375 0.4375  plane waves:     588
 k-point ** :  -0.4375-0.4375 0.4375  plane waves:     588
 k-point ** :  -0.3125-0.4375 0.4375  plane waves:     586
 k-point ** :  -0.1875-0.4375 0.4375  plane waves:     580
 k-point ** :  -0.0625-0.4375 0.4375  plane waves:     572
 k-point ** :   0.0625-0.3125 0.4375  plane waves:     577
 k-point ** :   0.1875-0.3125 0.4375  plane waves:     576
 k-point ** :   0.3125-0.3125 0.4375  plane waves:     581
 k-point ** :   0.4375-0.3125 0.4375  plane waves:     586
 k-point ** :  -0.4375-0.3125 0.4375  plane waves:     586
 k-point ** :  -0.3125-0.3125 0.4375  plane waves:     581
 k-point ** :  -0.1875-0.3125 0.4375  plane waves:     576
 k-point ** :  -0.0625-0.3125 0.4375  plane waves:     577
 k-point ** :   0.0625-0.1875 0.4375  plane waves:     578
 k-point ** :   0.1875-0.1875 0.4375  plane waves:     574
 k-point ** :   0.3125-0.1875 0.4375  plane waves:     576
 k-point ** :   0.4375-0.1875 0.4375  plane waves:     580
 k-point ** :  -0.4375-0.1875 0.4375  plane waves:     580
 k-point ** :  -0.3125-0.1875 0.4375  plane waves:     576
 k-point ** :  -0.1875-0.1875 0.4375  plane waves:     574
 k-point ** :  -0.0625-0.1875 0.4375  plane waves:     578
 k-point ** :   0.0625-0.0625 0.4375  plane waves:     578
 k-point ** :   0.1875-0.0625 0.4375  plane waves:     578
 k-point ** :   0.3125-0.0625 0.4375  plane waves:     577
 k-point ** :   0.4375-0.0625 0.4375  plane waves:     572
 k-point ** :  -0.4375-0.0625 0.4375  plane waves:     572
 k-point ** :  -0.3125-0.0625 0.4375  plane waves:     577
 k-point ** :  -0.1875-0.0625 0.4375  plane waves:     578
 k-point ** :  -0.0625-0.0625 0.4375  plane waves:     578

 maximum number of plane-waves:       588
 maximum index in each direction: 
   IXMAX=    5   IYMAX=    5   IZMAX=    5
   IXMIN=   -5   IYMIN=   -5   IZMIN=   -5


 total amount of memory used by VASP MPI-rank0   142889. kBytes
=======================================================================

   base      :      30000. kBytes
   nonl-proj :      21694. kBytes
   grid      :       9345. kBytes
   one-center:         62. kBytes
   wavefun   :      81788. kBytes
 
     INWAV:  cpu time    0.0000: real time    0.0000
 Broyden mixing: mesh for mixing (old mesh)
   NGX = 11   NGY = 11   NGZ = 11
  (NGX  = 48   NGY  = 48   NGZ  = 48)
  gives a total of   1331 points

 initial charge density was supplied:
 charge density of overlapping atoms calculated
 number of electron      16.0000000 magnetization       6.0000000
 keeping initial charge density in first step


--------------------------------------------------------------------------------------------------------


 Maximum index for augmentation-charges        21079 (set IRDMAX)


--------------------------------------------------------------------------------------------------------


 First call to EWALD:  gamma=   0.626
 Maximum number of real-space cells 3x 3x 3
 Maximum number of reciprocal cells 3x 3x 3

    FEWALD:  cpu time    0.0011: real time    0.0011


--------------------------------------- Iteration      1(   1)  ---------------------------------------


    POTLOK:  cpu time    0.0786: real time    0.1325
    SETDIJ:  cpu time    0.0142: real time    0.0142
     EDDAV:  cpu time   11.6714: real time   11.7016
 BZINTS: Fermi energy: 16.475290; 16.000000 electrons
         Band energy: 173.623295;  BLOECHL correction: -0.377653
       DOS:  cpu time    0.0551: real time    0.0553
    --------------------------------------------
      LOOP:  cpu time   11.8193: real time   11.9036

 eigenvalue-minimisations  : 17160
 total energy-change (2. order) : 0.7134201E+02  (-0.7651848E+03)
 number of electron      16.0000000 magnetization       6.0000000
 augmentation part       16.0000000 magnetization       6.0000000

 Free energy of the ion-electron system (eV)
  ---------------------------------------------------
  alpha Z        PSCENC =       121.74415284
  Ewald energy   TEWEN  =     -1184.36927309
  -Hartree energ DENC   =      -222.98507623
  -exchange      EXHF   =         0.00000000
  -V(xc)+E(xc)   XCENC  =        10.15561517
  PAW double counting   =      1107.51853371    -1122.97057422
  entropy T*S    EENTRO =         0.00000000
  eigenvalues    EBANDS =       173.62329545
  atomic energy  EATOM  =      1188.62534088
  Solvation  Ediel_sol  =         0.00000000
  ---------------------------------------------------
  free energy    TOTEN  =        71.34201450 eV

  energy without entropy =       71.34201450  energy(sigma->0) =       71.34201450


--------------------------------------------------------------------------------------------------------




--------------------------------------- Iteration      1(   2)  ---------------------------------------


     EDDAV:  cpu time   10.9217: real time   10.9494
 BZINTS: Fermi energy:  8.318906; 16.000000 electrons
         Band energy:  85.976845;  BLOECHL correction: -0.039770
       DOS:  cpu time    0.0561: real time    0.0563
    --------------------------------------------
      LOOP:  cpu time   10.9778: real time   11.0056

 eigenvalue-minimisations  : 16408
 total energy-change (2. order) :-0.8764645E+02  (-0.7925961E+02)
 number of electron      16.0000000 magnetization       6.0000000
 augmentation part       16.0000000 magnetization       6.0000000

 Free energy of the ion-electron system (eV)
  ---------------------------------------------------
  alpha Z        PSCENC =       121.74415284
  Ewald energy   TEWEN  =     -1184.36927309
  -Hartree energ DENC   =      -222.98507623
  -exchange      EXHF   =         0.00000000
  -V(xc)+E(xc)   XCENC  =        10.15561517
  PAW double counting   =      1107.51853371    -1122.97057422
  entropy T*S    EENTRO =         0.00000000
  eigenvalues    EBANDS =        85.97684498
  atomic energy  EATOM  =      1188.62534088
  Solvation  Ediel_sol  =         0.00000000
  ---------------------------------------------------
  free energy    TOTEN  =       -16.30443596 eV

  energy without entropy =      -16.30443596  energy(sigma->0) =      -16.30443596


--------------------------------------------------------------------------------------------------------




--------------------------------------- Iteration      1(   3)  ---------------------------------------

[...]
     11       8.5047      0.00000
     12       8.9053      0.00000
     13      14.5533      0.00000
     14      15.3103      0.00000
     15      23.3107      0.00000
     16      24.0023      0.00000

 k-point   254 :      -0.3125   -0.0625    0.4375
  band No.  band energies     occupation 
      1       1.8825      1.00000
      2       2.5765      1.00000
      3       4.3884      1.00000
      4       4.5440      1.00000
      5       4.9947      1.00323
      6       5.1456      1.01320
      7       6.9117      0.00000
      8       7.1094      0.00000
      9       7.7591      0.00000
     10       8.0951      0.00000
     11       8.1417      0.00000
     12       9.2692      0.00000
     13      15.4792      0.00000
     14      17.2647      0.00000
     15      22.3663      0.00000
     16      24.0275      0.00000

 k-point   255 :      -0.1875   -0.0625    0.4375
  band No.  band energies     occupation 
      1       1.4563      1.00000
      2       2.6396      1.00000
      3       4.4237      1.00000
      4       4.7689      1.00000
      5       4.9620      1.00000
      6       5.1669      1.04050
      7       6.5149      0.00000
      8       6.6064      0.00000
      9       7.3619      0.00000
     10       7.7413      0.00000
     11       8.0696      0.00000
     12       9.1138      0.00000
     13      17.9332      0.00000
     14      20.0276      0.00000
     15      21.5846      0.00000
     16      23.7114      0.00000

 k-point   256 :      -0.0625   -0.0625    0.4375
  band No.  band energies     occupation 
      1       1.1003      1.00000
      2       2.4665      1.00000
      3       4.4946      1.00000
      4       5.1215      1.00000
      5       5.4099      1.00000
      6       5.7522      0.69888
      7       6.0207      0.00000
      8       6.1598      0.00000
      9       6.7597      0.00000
     10       7.2601      0.00000
     11       8.1036      0.00000
     12       8.8590      0.00000
     13      20.9526      0.00000
     14      21.3084      0.00000
     15      22.9756      0.00000
     16      23.7997      0.00000


--------------------------------------------------------------------------------------------------------


 soft charge-density along one line, spin component           1
         0         1         2         3         4         5         6         7         8         9
x     7.7056    0.0000    0.0000    0.0000   -0.3169    0.0000   -0.0000   -0.0000   -0.0034    0.0000
x    -0.0000   -0.0000    0.0024    0.0000   -0.0000   -0.0000   -0.0000    0.0000    0.0000    0.0000
x     0.0000   -0.0000   -0.0000    0.0000    0.0000    0.0000
y     7.7056    0.0000    0.0000   -0.0000   -0.3169    0.0000   -0.0000    0.0000   -0.0034   -0.0000
y    -0.0000    0.0000    0.0024    0.0000   -0.0000   -0.0000   -0.0000    0.0000    0.0000    0.0000
y     0.0000    0.0000   -0.0000   -0.0000    0.0000    0.0000
z     7.7056    0.0000    0.0000   -0.0000   -0.3168    0.0000   -0.0000    0.0000   -0.0034   -0.0000
z    -0.0000   -0.0000    0.0024    0.0000   -0.0000    0.0000   -0.0000    0.0000    0.0000   -0.0000
z     0.0000   -0.0000    0.0000   -0.0000    0.0000    0.0000
 total charge-density along one line
x    16.0000    0.0000    0.0000   -0.0000    3.2146    0.0000    0.0000   -0.0000    0.0204   -0.0000
x     0.0000   -0.0000    0.0052    0.0000    0.0000    0.0000   -0.0015    0.0000    0.0000    0.0000
x    -0.0002    0.0000   -0.0000   -0.0000    0.0002    0.0000   -0.0000    0.0000   -0.0000   -0.0000
x     0.0000    0.0000   -0.0000   -0.0000    0.0000   -0.0000    0.0000    0.0000   -0.0000   -0.0000
x     0.0000   -0.0000    0.0000    0.0000   -0.0000    0.0000    0.0000    0.0000   -0.0000    0.0000
y    16.0000    0.0000    0.0000   -0.0000    3.2146    0.0000    0.0000    0.0000    0.0204    0.0000
y     0.0000    0.0000    0.0052    0.0000   -0.0000   -0.0000   -0.0015    0.0000    0.0000    0.0000
y    -0.0002   -0.0000   -0.0000    0.0000    0.0002   -0.0000   -0.0000   -0.0000   -0.0000    0.0000
y     0.0000   -0.0000   -0.0000   -0.0000    0.0000    0.0000    0.0000   -0.0000   -0.0000    0.0000
y     0.0000    0.0000    0.0000   -0.0000   -0.0000    0.0000    0.0000   -0.0000   -0.0000    0.0000
z    16.0000    0.0000    0.0000    0.0000    3.2148    0.0000    0.0000    0.0000    0.0205    0.0000
z     0.0000   -0.0000    0.0052    0.0000    0.0000    0.0000   -0.0015    0.0000    0.0000   -0.0000
z    -0.0002    0.0000   -0.0000   -0.0000    0.0002    0.0000   -0.0000    0.0000   -0.0000   -0.0000
z     0.0000    0.0000   -0.0000    0.0000    0.0000   -0.0000    0.0000    0.0000   -0.0000   -0.0000
z     0.0000   -0.0000   -0.0000    0.0000   -0.0000   -0.0000    0.0000    0.0000   -0.0000    0.0000
 
 soft charge-density along one line, spin component           2
         0         1         2         3         4         5         6         7         8         9
x     0.7488    0.0000   -0.0000    0.0000    0.0065   -0.0000    0.0000   -0.0000    0.0291    0.0000
x     0.0000   -0.0000    0.0016    0.0000   -0.0000   -0.0000   -0.0000    0.0000   -0.0000    0.0000
x     0.0000   -0.0000    0.0000    0.0000    0.0000    0.0000
y     0.7488    0.0000   -0.0000   -0.0000    0.0065    0.0000    0.0000    0.0000    0.0291   -0.0000
y     0.0000    0.0000    0.0016    0.0000    0.0000   -0.0000   -0.0000    0.0000   -0.0000    0.0000
y     0.0000    0.0000   -0.0000   -0.0000    0.0000    0.0000
z     0.7488    0.0000   -0.0000    0.0000    0.0068   -0.0000    0.0000    0.0000    0.0291   -0.0000
z     0.0000   -0.0000    0.0016   -0.0000    0.0000    0.0000   -0.0000   -0.0000   -0.0000   -0.0000
z     0.0000   -0.0000   -0.0000   -0.0000    0.0000    0.0000
 total charge-density along one line
x     4.3352    0.0000   -0.0000   -0.0000    1.5617   -0.0000   -0.0000   -0.0000    0.1352    0.0000
x    -0.0000   -0.0000    0.0178    0.0000   -0.0000   -0.0000   -0.0011    0.0000    0.0000    0.0000
x    -0.0003   -0.0000    0.0000   -0.0000    0.0002   -0.0000   -0.0000    0.0000    0.0000    0.0000
x    -0.0000    0.0000   -0.0000   -0.0000    0.0000   -0.0000    0.0000   -0.0000    0.0000   -0.0000
x     0.0000    0.0000   -0.0000    0.0000   -0.0000    0.0000   -0.0000    0.0000   -0.0000    0.0000
y     4.3352    0.0000   -0.0000   -0.0000    1.5619    0.0000   -0.0000    0.0000    0.1353   -0.0000
y    -0.0000    0.0000    0.0178    0.0000   -0.0000   -0.0000   -0.0011   -0.0000   -0.0000    0.0000
y    -0.0003    0.0000    0.0000    0.0000    0.0002    0.0000    0.0000   -0.0000    0.0000   -0.0000
y    -0.0000   -0.0000   -0.0000    0.0000    0.0000    0.0000    0.0000    0.0000    0.0000    0.0000
y     0.0000   -0.0000   -0.0000   -0.0000   -0.0000   -0.0000   -0.0000   -0.0000   -0.0000    0.0000
z     4.3352    0.0000   -0.0000    0.0000    1.5624    0.0000   -0.0000    0.0000    0.1356   -0.0000
z    -0.0000   -0.0000    0.0178   -0.0000   -0.0000    0.0000   -0.0011   -0.0000   -0.0000   -0.0000
z    -0.0003    0.0000    0.0000   -0.0000    0.0002    0.0000    0.0000    0.0000    0.0000   -0.0000
z    -0.0000    0.0000   -0.0000   -0.0000    0.0000   -0.0000    0.0000    0.0000    0.0000   -0.0000
z     0.0000   -0.0000   -0.0000    0.0000   -0.0000   -0.0000   -0.0000    0.0000   -0.0000    0.0000
 
 pseudopotential strength for first ion, spin component:           1
 -5.621  -0.001  -0.000  -0.001   0.000  -6.151  -0.001  -0.000
 -0.001  -5.621  -0.000   0.001   0.000  -0.001  -6.150  -0.000
 -0.000  -0.000  -5.793  -0.000  -0.000  -0.000  -0.000  -6.318
 -0.001   0.001  -0.000  -5.621  -0.000  -0.001   0.001  -0.000
  0.000   0.000  -0.000  -0.000  -5.793   0.000   0.000  -0.000
 -6.151  -0.001  -0.000  -0.001   0.000  -6.638  -0.001  -0.000
 -0.001  -6.150  -0.000   0.001   0.000  -0.001  -6.638  -0.000
 -0.000  -0.000  -6.318  -0.000  -0.000  -0.000  -0.000  -6.801
 -0.001   0.001  -0.000  -6.151  -0.000  -0.001   0.001  -0.000
  0.000   0.000  -0.000  -0.000  -6.318   0.000   0.000  -0.000
 -0.000   0.000  -0.000   0.000   0.000  -0.000   0.000  -0.000
 -0.000   0.000  -0.000   0.000   0.000  -0.000   0.000  -0.000
  0.000  -0.000  -0.000  -0.000  -0.000   0.000  -0.000  -0.000
 -0.000   0.000  -0.000   0.000  -0.000  -0.000   0.000  -0.000
  0.000  -0.000  -0.000  -0.000   0.000   0.000  -0.000  -0.000
  0.000  -0.000  -0.000  -0.000  -0.000   0.000  -0.000  -0.000
 -0.000   0.000  -0.000   0.000  -0.000  -0.000   0.000  -0.000
  0.000  -0.000  -0.000  -0.000   0.000   0.000  -0.000  -0.000
 pseudopotential strength for first ion, spin component:           2
 -4.163   0.001  -0.001   0.001  -0.000  -4.739   0.001  -0.001
  0.001  -4.164  -0.000  -0.000   0.000   0.001  -4.740  -0.000
 -0.001  -0.000  -3.934  -0.000  -0.000  -0.001  -0.000  -4.515
  0.001  -0.000  -0.000  -4.164  -0.000   0.001  -0.000  -0.000
 -0.000   0.000  -0.000  -0.000  -3.934  -0.000   0.000  -0.000
 -4.739   0.001  -0.001   0.001  -0.000  -5.272   0.001  -0.001
  0.001  -4.740  -0.000  -0.000   0.000   0.001  -5.272  -0.000
 -0.001  -0.000  -4.515  -0.000  -0.000  -0.001  -0.000  -5.052
  0.001  -0.000  -0.000  -4.740  -0.000   0.001  -0.000  -0.000
 -0.000   0.000  -0.000  -0.000  -4.514  -0.000   0.000  -0.000
 -0.000  -0.000   0.000  -0.000  -0.000  -0.000  -0.000   0.000
 -0.000  -0.000   0.000  -0.000  -0.000  -0.000  -0.000   0.000
  0.000  -0.000  -0.000  -0.000  -0.000   0.000  -0.000  -0.000
 -0.000   0.000  -0.000   0.000   0.000  -0.000   0.000  -0.000
  0.000  -0.000  -0.000   0.000   0.000   0.000  -0.000  -0.000
  0.000  -0.000  -0.000  -0.000  -0.000   0.000  -0.000  -0.000
 -0.000   0.000   0.000   0.000   0.000  -0.000   0.000   0.000
  0.000  -0.000  -0.000   0.000   0.000   0.000  -0.000  -0.000
 total augmentation occupancy for first ion, spin component:           1
  2.238   0.005  -0.001   0.006  -0.000  -1.243  -0.004   0.001  -0.005   0.000  -0.000  -0.000  -0.000   0.000   0.000   0.000
  0.005   2.234  -0.001  -0.002   0.001  -0.004  -1.240   0.001   0.002  -0.001   0.001   0.000  -0.000   0.000  -0.000   0.000
 -0.001  -0.001   3.622  -0.001   0.000   0.001   0.001  -2.345   0.001   0.000  -0.000  -0.000  -0.000  -0.000  -0.000   0.000
  0.006  -0.002  -0.001   2.235  -0.001  -0.005   0.002   0.001  -1.241   0.001   0.001   0.000   0.000   0.000   0.000  -0.000
 -0.000   0.001   0.000  -0.001   3.622   0.000  -0.001   0.000   0.001  -2.345   0.000   0.000  -0.000  -0.000  -0.000   0.000
 -1.243  -0.004   0.001  -0.005   0.000   1.640   0.003  -0.001   0.003  -0.000   0.001   0.000   0.000  -0.000   0.000  -0.000
 -0.004  -1.240   0.001   0.002  -0.001   0.003   1.638  -0.001  -0.001   0.001  -0.001  -0.000   0.000  -0.000  -0.000  -0.000
  0.001   0.001  -2.345   0.001   0.000  -0.001  -0.001   2.333  -0.001  -0.000   0.000   0.000   0.000   0.000   0.000  -0.000
 -0.005   0.002   0.001  -1.241   0.001   0.003  -0.001  -0.001   1.638  -0.001  -0.001  -0.000  -0.000   0.000  -0.000   0.000
  0.000  -0.001   0.000   0.001  -2.345  -0.000   0.001  -0.000  -0.001   2.333  -0.000  -0.000   0.000   0.000   0.000  -0.000
 -0.000   0.001  -0.000   0.001   0.000   0.001  -0.001   0.000  -0.001  -0.000   2.418  -0.281   0.000   0.000   0.000  -0.000
 -0.000   0.000  -0.000   0.000   0.000   0.000  -0.000   0.000  -0.000  -0.000  -0.281   0.038   0.000  -0.000  -0.000   0.000
 -0.000  -0.000  -0.000   0.000  -0.000   0.000   0.000   0.000  -0.000   0.000   0.000   0.000   0.295   0.000  -0.000  -0.026
  0.000   0.000  -0.000   0.000  -0.000  -0.000  -0.000   0.000   0.000   0.000   0.000  -0.000   0.000   0.295   0.000   0.000
  0.000  -0.000  -0.000   0.000  -0.000   0.000  -0.000   0.000  -0.000   0.000   0.000  -0.000  -0.000   0.000   0.295  -0.000
  0.000   0.000   0.000  -0.000   0.000  -0.000  -0.000  -0.000   0.000  -0.000  -0.000   0.000  -0.026   0.000  -0.000   0.002
 -0.000  -0.000   0.000  -0.000   0.000   0.000   0.000  -0.000  -0.000  -0.000  -0.000   0.000   0.000  -0.026   0.000  -0.000
 -0.000   0.000   0.000  -0.000   0.000   0.000   0.000  -0.000   0.000  -0.000  -0.000   0.000  -0.000   0.000  -0.026   0.000
 total augmentation occupancy for first ion, spin component:           2
  1.855   0.007  -0.001   0.008  -0.000  -0.759  -0.004   0.001  -0.005   0.000  -0.001  -0.000  -0.000   0.000  -0.000   0.000
  0.007   1.850  -0.001  -0.003   0.001  -0.004  -0.756   0.001   0.002  -0.001   0.001   0.000  -0.000  -0.000  -0.000   0.000
 -0.001  -0.001   3.076  -0.001   0.000   0.001   0.001  -1.372   0.001  -0.000   0.000  -0.000  -0.000  -0.000  -0.000   0.000
  0.008  -0.003  -0.001   1.851  -0.001  -0.005   0.002   0.001  -0.757   0.001   0.001   0.000   0.000   0.000   0.000  -0.000
 -0.000   0.001   0.000  -0.001   3.076   0.000  -0.001  -0.000   0.001  -1.372  -0.000   0.000  -0.000  -0.000  -0.000   0.000
 -0.759  -0.004   0.001  -0.005   0.000   0.058   0.003  -0.001   0.003  -0.000   0.000   0.000   0.000  -0.000   0.000  -0.000
 -0.004  -0.756   0.001   0.002  -0.001   0.003   0.056  -0.000  -0.002   0.001  -0.000  -0.000  -0.000   0.000   0.000  -0.000
  0.001   0.001  -1.372   0.001  -0.000  -0.001  -0.000   0.383  -0.000   0.000  -0.000  -0.000   0.000   0.000   0.000  -0.000
 -0.005   0.002   0.001  -0.757   0.001   0.003  -0.002  -0.000   0.057  -0.001  -0.000  -0.000   0.000  -0.000  -0.000  -0.000
  0.000  -0.001  -0.000   0.001  -1.372  -0.000   0.001   0.000  -0.001   0.383   0.000   0.000   0.000   0.000   0.000  -0.000
 -0.001   0.001   0.000   0.001  -0.000   0.000  -0.000  -0.000  -0.000   0.000  -0.332   0.100   0.000   0.000   0.000   0.000
 -0.000   0.000  -0.000   0.000   0.000   0.000  -0.000  -0.000  -0.000   0.000   0.100  -0.017  -0.000   0.000   0.000   0.000
 -0.000  -0.000  -0.000   0.000  -0.000   0.000  -0.000   0.000   0.000   0.000   0.000  -0.000  -0.039   0.000  -0.000   0.006
  0.000  -0.000  -0.000   0.000  -0.000  -0.000   0.000   0.000  -0.000   0.000   0.000   0.000   0.000  -0.039   0.000   0.000
 -0.000  -0.000  -0.000   0.000  -0.000   0.000   0.000   0.000  -0.000   0.000   0.000   0.000  -0.000   0.000  -0.039  -0.000
  0.000   0.000   0.000  -0.000   0.000  -0.000  -0.000  -0.000  -0.000  -0.000   0.000   0.000   0.006   0.000  -0.000  -0.001
 -0.000  -0.000   0.000  -0.000   0.000   0.000  -0.000  -0.000   0.000  -0.000  -0.000   0.000   0.000   0.006   0.000  -0.000
  0.000   0.000   0.000  -0.000   0.000  -0.000  -0.000  -0.000   0.000  -0.000  -0.000  -0.000  -0.000   0.000   0.006   0.000


------------------------ aborting loop because EDIFF is reached ----------------------------------------


    CHARGE:  cpu time    0.7899: real time    0.7919
    FORLOC:  cpu time    0.0015: real time    0.0015
    FORNL :  cpu time    0.7176: real time    0.7193
    STRESS:  cpu time    0.9994: real time    1.0019
    FORCOR:  cpu time    0.0739: real time    0.0741
    FORHAR:  cpu time    0.0068: real time    0.0068
    MIXING:  cpu time    0.0023: real time    0.0023
    OFIELD:  cpu time    0.0000: real time    0.0000

  FORCE on cell =-STRESS in cart. coord.  units (eV):
  Direction    XX          YY          ZZ          XY          YZ          ZX
  --------------------------------------------------------------------------------------
  Alpha Z   121.74415   121.74415   121.74415
  Ewald    -394.78973  -394.78973  -394.78973    -0.00000    -0.00000    -0.00000
  Hartree    63.26329    63.26278    63.26109     0.00972    -0.00597    -0.00687
  E(xc)     -79.41186   -79.41186   -79.41186    -0.00142     0.00113     0.00120
  Local     117.89362   117.89515   117.90025    -0.02500     0.01496     0.01737
  n-local   -51.77719   -51.77656   -51.77452    -0.01283     0.01234     0.01243
  augment    77.44276    77.44190    77.43902     0.01093    -0.00601    -0.00714
  Kinetic   145.56189   145.56164   145.56083     0.00805     0.00186    -0.00045
  Fock        0.00000     0.00000     0.00000     0.00000     0.00000     0.00000
  -------------------------------------------------------------------------------------
  Total      -0.07306    -0.07252    -0.07076    -0.01054     0.01832     0.01654
  in kB      -5.15501    -5.11684    -4.99285    -0.74377     1.29257     1.16699
  external pressure =       -5.09 kB  Pullay stress =        0.00 kB


 VOLUME and BASIS-vectors are now :
 -----------------------------------------------------------------------------
  energy-cutoff  :      500.00
  volume of cell :       22.71
      direct lattice vectors                 reciprocal lattice vectors
     2.831775588  0.000000000  0.000000000     0.353135328  0.000000000  0.000000000
     0.000000000  2.831775588  0.000000000     0.000000000  0.353135328  0.000000000
     0.000000000  0.000000000  2.831775588     0.000000000  0.000000000  0.353135328

  length of vectors
     2.831775588  2.831775588  2.831775588     0.353135328  0.353135328  0.353135328


 FORCES acting on ions
    electron-ion (+dipol)            ewald-force                    non-local-force                 convergence-correction
 -----------------------------------------------------------------------------------------------
   -.204E-07 -.153E-07 -.306E-08   0.712E-14 0.738E-14 0.496E-15   0.420E-07 0.228E-07 -.443E-08   -.100E-07 -.727E-08 0.633E-08
   0.994E-08 0.184E-08 -.749E-08   -.818E-14 -.761E-14 -.166E-14   -.258E-07 -.413E-09 0.424E-07   0.499E-08 -.333E-08 -.245E-07
 -----------------------------------------------------------------------------------------------
   -.105E-07 -.135E-07 -.105E-07   -.106E-14 -.236E-15 -.116E-14   0.162E-07 0.224E-07 0.380E-07   -.504E-08 -.106E-07 -.182E-07
 
 
 POSITION                                       TOTAL-FORCE (eV/Angst)
 -----------------------------------------------------------------------------------
      1.41589      1.41589      1.41589         0.000000      0.000000     -0.000000
      0.00000      0.00000      0.00000        -0.000000     -0.000000      0.000000
 -----------------------------------------------------------------------------------
    total drift:                                0.000000     -0.000000      0.000000


--------------------------------------------------------------------------------------------------------



  FREE ENERGIE OF THE ION-ELECTRON SYSTEM (eV)
  ---------------------------------------------------
  free  energy   TOTEN  =       -16.47594574 eV

  energy  without entropy=      -16.47594574  energy(sigma->0) =      -16.47594574
 


--------------------------------------------------------------------------------------------------------


    POTLOK:  cpu time    0.0901: real time    0.0904


--------------------------------------------------------------------------------------------------------


 writing wavefunctions
     LOOP+:  cpu time  265.1664: real time  266.1642
    4ORBIT:  cpu time    0.0000: real time    0.0000
 BZINTS: Fermi energy:  5.783338; 16.000000 electrons
         Band energy:  56.866285;  BLOECHL correction: -0.050827

 total amount of memory used by VASP MPI-rank0   142889. kBytes
=======================================================================

   base      :      30000. kBytes
   nonl-proj :      21694. kBytes
   grid      :       9345. kBytes
   one-center:         62. kBytes
   wavefun   :      81788. kBytes
 
  
  
 General timing and accounting informations for this job:
 ========================================================
  
                  Total CPU time used (sec):      266.002
                            User time (sec):      265.645
                          System time (sec):        0.357
                         Elapsed time (sec):      267.300
  
                   Maximum memory used (kb):      172088.
                   Average memory used (kb):           0.
  
                          Minor page faults:        87033
                          Major page faults:            1
                 Voluntary context switches:          954
