<?xml version="1.0" encoding="ISO-8859-1"?>
<modeling>
 <generator>
  <i name="program" type="string">vasp </i>
  <i name="version" type="string">5.4.4.18Apr17-6-g9f103f2a35  </i>
  <i name="subversion" type="string">(build Mar 26 2019 17:03:36) complex            serial </i>
  <i name="platform" type="string">LINUX </i>
  <i name="date" type="string">2021 04 29 </i>
  <i name="time" type="string">09:02:32 </i>
 </generator>
 <incar>
  <i type="string" name="SYSTEM">Fe</i>
  <i type="string" name="PREC">accurate</i>
  <i type="int" name="ISPIN">     2</i>
  <i name="EDIFF">      0.00000010</i>
  <i type="int" name="NSW">     0</i>
  <i type="int" name="ISYM">     0</i>
  <i name="ENCUT">    500.00000000</i>
  <i type="int" name="NBANDS">    16</i>
  <v name="MAGMOM">      3.00000000      3.00000000</v>
  <i type="int" name="ISMEAR">    -5</i>
  <i type="int" name="NWRITE">     0</i>
  <i type="logical" name="LWAVE"> T  </i>
  <v type="int" name="KPOINT_BSE">    -1     0     0     0</v>
 </incar>
 <structure name="primitive_cell" >
  <crystal>
   <varray name="basis" >
    <v>       2.83177559       0.00000000       0.00000000 </v>
    <v>       0.00000000       2.83177559       0.00000000 </v>
    <v>       0.00000000       0.00000000       2.83177559 </v>
   </varray>
   <i name="volume">     22.70787529 </i>
   <varray name="rec_basis" >
    <v>       0.35313533       0.00000000       0.00000000 </v>
    <v>       0.00000000       0.35313533       0.00000000 </v>
    <v>       0.00000000       0.00000000       0.35313533 </v>
   </varray>
  </crystal>
  <varray name="positions" >
   <v>      -0.50000000      -0.50000000      -0.50000000 </v>
   <v>       0.00000000       0.00000000       0.00000000 </v>
  </varray>
 </structure>
 <varray name="primitive_index" >
  <v type="int" >        1 </v>
  <v type="int" >        2 </v>
 </varray>
 <kpoints>
  <generation param="Monkhorst-Pack">
   <v type="int" name="divisions">       8        8        8 </v>
   <v name="usershift">      0.00000000       0.00000000       0.00000000 </v>
   <v name="genvec1">      0.12500000       0.00000000       0.00000000 </v>
   <v name="genvec2">      0.00000000       0.12500000       0.00000000 </v>
   <v name="genvec3">      0.00000000       0.00000000       0.12500000 </v>
   <v name="shift">      0.50000000       0.50000000       0.50000000 </v>
  </generation>
  <varray name="kpointlist" >
   <v>       0.06250000       0.06250000       0.06250000 </v>
   <v>       0.18750000       0.06250000       0.06250000 </v>
   <v>       0.31250000       0.06250000       0.06250000 </v>
   <v>       0.43750000       0.06250000       0.06250000 </v>
   <v>      -0.43750000       0.06250000       0.06250000 </v>
   <v>      -0.31250000       0.06250000       0.06250000 </v>
   <v>      -0.18750000       0.06250000       0.06250000 </v>
   <v>      -0.06250000       0.06250000       0.06250000 </v>
   <v>       0.06250000       0.18750000       0.06250000 </v>
   <v>       0.18750000       0.18750000       0.06250000 </v>
   <v>       0.31250000       0.18750000       0.06250000 </v>
   <v>       0.43750000       0.18750000       0.06250000 </v>
   <v>      -0.43750000       0.18750000       0.06250000 </v>
   <v>      -0.31250000       0.18750000       0.06250000 </v>
   <v>      -0.18750000       0.18750000       0.06250000 </v>
   <v>      -0.06250000       0.18750000       0.06250000 </v>
   <v>       0.06250000       0.31250000       0.06250000 </v>
   <v>       0.18750000       0.31250000       0.06250000 </v>
   <v>       0.31250000       0.31250000       0.06250000 </v>
   <v>       0.43750000       0.31250000       0.06250000 </v>
   <v>      -0.43750000       0.31250000       0.06250000 </v>
   <v>      -0.31250000       0.31250000       0.06250000 </v>
   <v>      -0.18750000       0.31250000       0.06250000 </v>
   <v>      -0.06250000       0.31250000       0.06250000 </v>
   <v>       0.06250000       0.43750000       0.06250000 </v>
   <v>       0.18750000       0.43750000       0.06250000 </v>
   <v>       0.31250000       0.43750000       0.06250000 </v>
   <v>       0.43750000       0.43750000       0.06250000 </v>
   <v>      -0.43750000       0.43750000       0.06250000 </v>
   <v>      -0.31250000       0.43750000       0.06250000 </v>
   <v>      -0.18750000       0.43750000       0.06250000 </v>
   <v>      -0.06250000       0.43750000       0.06250000 </v>
   <v>       0.06250000      -0.43750000       0.06250000 </v>
   <v>       0.18750000      -0.43750000       0.06250000 </v>
   <v>       0.31250000      -0.43750000       0.06250000 </v>
   <v>       0.43750000      -0.43750000       0.06250000 </v>
   <v>      -0.43750000      -0.43750000       0.06250000 </v>
   <v>      -0.31250000      -0.43750000       0.06250000 </v>
   <v>      -0.18750000      -0.43750000       0.06250000 </v>
   <v>      -0.06250000      -0.43750000       0.06250000 </v>
   <v>       0.06250000      -0.31250000       0.06250000 </v>
   <v>       0.18750000      -0.31250000       0.06250000 </v>
   <v>       0.31250000      -0.31250000       0.06250000 </v>
   <v>       0.43750000      -0.31250000       0.06250000 </v>
   <v>      -0.43750000      -0.31250000       0.06250000 </v>
   <v>      -0.31250000      -0.31250000       0.06250000 </v>
   <v>      -0.18750000      -0.31250000       0.06250000 </v>
   <v>      -0.06250000      -0.31250000       0.06250000 </v>
   <v>       0.06250000      -0.18750000       0.06250000 </v>
   <v>       0.18750000      -0.18750000       0.06250000 </v>
   <v>       0.31250000      -0.18750000       0.06250000 </v>
   <v>       0.43750000      -0.18750000       0.06250000 </v>
   <v>      -0.43750000      -0.18750000       0.06250000 </v>
   <v>      -0.31250000      -0.18750000       0.06250000 </v>
   <v>      -0.18750000      -0.18750000       0.06250000 </v>
   <v>      -0.06250000      -0.18750000       0.06250000 </v>
   <v>       0.06250000      -0.06250000       0.06250000 </v>
   <v>       0.18750000      -0.06250000       0.06250000 </v>
   <v>       0.31250000      -0.06250000       0.06250000 </v>
   <v>       0.43750000      -0.06250000       0.06250000 </v>
   <v>      -0.43750000      -0.06250000       0.06250000 </v>
   <v>      -0.31250000      -0.06250000       0.06250000 </v>
   <v>      -0.18750000      -0.06250000       0.06250000 </v>
   <v>      -0.06250000      -0.06250000       0.06250000 </v>
   <v>       0.06250000       0.06250000       0.18750000 </v>
   <v>       0.18750000       0.06250000       0.18750000 </v>
   <v>       0.31250000       0.06250000       0.18750000 </v>
   <v>       0.43750000       0.06250000       0.18750000 </v>
   <v>      -0.43750000       0.06250000       0.18750000 </v>
   <v>      -0.31250000       0.06250000       0.18750000 </v>
   <v>      -0.18750000       0.06250000       0.18750000 </v>
   <v>      -0.06250000       0.06250000       0.18750000 </v>
   <v>       0.06250000       0.18750000       0.18750000 </v>
   <v>       0.18750000       0.18750000       0.18750000 </v>
   <v>       0.31250000       0.18750000       0.18750000 </v>
   <v>       0.43750000       0.18750000       0.18750000 </v>
   <v>      -0.43750000       0.18750000       0.18750000 </v>
   <v>      -0.31250000       0.18750000       0.18750000 </v>
   <v>      -0.18750000       0.18750000       0.18750000 </v>
   <v>      -0.06250000       0.18750000       0.18750000 </v>
   <v>       0.06250000       0.31250000       0.18750000 </v>
   <v>       0.18750000       0.31250000       0.18750000 </v>
   <v>       0.31250000       0.31250000       0.18750000 </v>
   <v>       0.43750000       0.31250000       0.18750000 </v>
   <v>      -0.43750000       0.31250000       0.18750000 </v>
   <v>      -0.31250000       0.31250000       0.18750000 </v>
   <v>      -0.18750000       0.31250000       0.18750000 </v>
   <v>      -0.06250000       0.31250000       0.18750000 </v>
   <v>       0.06250000       0.43750000       0.18750000 </v>
   <v>       0.18750000       0.43750000       0.18750000 </v>
   <v>       0.31250000       0.43750000       0.18750000 </v>
   <v>       0.43750000       0.43750000       0.18750000 </v>
   <v>      -0.43750000       0.43750000       0.18750000 </v>
   <v>      -0.31250000       0.43750000       0.18750000 </v>
   <v>      -0.18750000       0.43750000       0.18750000 </v>
   <v>      -0.06250000       0.43750000       0.18750000 </v>
   <v>       0.06250000      -0.43750000       0.18750000 </v>
   <v>       0.18750000      -0.43750000       0.18750000 </v>
   <v>       0.31250000      -0.43750000       0.18750000 </v>
   <v>       0.43750000      -0.43750000       0.18750000 </v>
   <v>      -0.43750000      -0.43750000       0.18750000 </v>
   <v>      -0.31250000      -0.43750000       0.18750000 </v>
   <v>      -0.18750000      -0.43750000       0.18750000 </v>
   <v>      -0.06250000      -0.43750000       0.18750000 </v>
   <v>       0.06250000      -0.31250000       0.18750000 </v>
   <v>       0.18750000      -0.31250000       0.18750000 </v>
   <v>       0.31250000      -0.31250000       0.18750000 </v>
   <v>       0.43750000      -0.31250000       0.18750000 </v>
   <v>      -0.43750000      -0.31250000       0.18750000 </v>
   <v>      -0.31250000      -0.31250000       0.18750000 </v>
   <v>      -0.18750000      -0.31250000       0.18750000 </v>
   <v>      -0.06250000      -0.31250000       0.18750000 </v>
   <v>       0.06250000      -0.18750000       0.18750000 </v>
   <v>       0.18750000      -0.18750000       0.18750000 </v>
   <v>       0.31250000      -0.18750000       0.18750000 </v>
   <v>       0.43750000      -0.18750000       0.18750000 </v>
   <v>      -0.43750000      -0.18750000       0.18750000 </v>
   <v>      -0.31250000      -0.18750000       0.18750000 </v>
   <v>      -0.18750000      -0.18750000       0.18750000 </v>
   <v>      -0.06250000      -0.18750000       0.18750000 </v>
   <v>       0.06250000      -0.06250000       0.18750000 </v>
   <v>       0.18750000      -0.06250000       0.18750000 </v>
   <v>       0.31250000      -0.06250000       0.18750000 </v>
   <v>       0.43750000      -0.06250000       0.18750000 </v>
   <v>      -0.43750000      -0.06250000       0.18750000 </v>
   <v>      -0.31250000      -0.06250000       0.18750000 </v>
   <v>      -0.18750000      -0.06250000       0.18750000 </v>
   <v>      -0.06250000      -0.06250000       0.18750000 </v>
   <v>       0.06250000       0.06250000       0.31250000 </v>
   <v>       0.18750000       0.06250000       0.31250000 </v>
   <v>       0.31250000       0.06250000       0.31250000 </v>
   <v>       0.43750000       0.06250000       0.31250000 </v>
   <v>      -0.43750000       0.06250000       0.31250000 </v>
   <v>      -0.31250000       0.06250000       0.31250000 </v>
   <v>      -0.18750000       0.06250000       0.31250000 </v>
   <v>      -0.06250000       0.06250000       0.31250000 </v>
   <v>       0.06250000       0.18750000       0.31250000 </v>
   <v>       0.18750000       0.18750000       0.31250000 </v>
   <v>       0.31250000       0.18750000       0.31250000 </v>
   <v>       0.43750000       0.18750000       0.31250000 </v>
   <v>      -0.43750000       0.18750000       0.31250000 </v>
   <v>      -0.31250000       0.18750000       0.31250000 </v>
   <v>      -0.18750000       0.18750000       0.31250000 </v>
   <v>      -0.06250000       0.18750000       0.31250000 </v>
   <v>       0.06250000       0.31250000       0.31250000 </v>
   <v>       0.18750000       0.31250000       0.31250000 </v>
   <v>       0.31250000       0.31250000       0.31250000 </v>
   <v>       0.43750000       0.31250000       0.31250000 </v>
   <v>      -0.43750000       0.31250000       0.31250000 </v>
   <v>      -0.31250000       0.31250000       0.31250000 </v>
   <v>      -0.18750000       0.31250000       0.31250000 </v>
   <v>      -0.06250000       0.31250000       0.31250000 </v>
   <v>       0.06250000       0.43750000       0.31250000 </v>
   <v>       0.18750000       0.43750000       0.31250000 </v>
   <v>       0.31250000       0.43750000       0.31250000 </v>
   <v>       0.43750000       0.43750000       0.31250000 </v>
   <v>      -0.43750000       0.43750000       0.31250000 </v>
   <v>      -0.31250000       0.43750000       0.31250000 </v>
   <v>      -0.18750000       0.43750000       0.31250000 </v>
   <v>      -0.06250000       0.43750000       0.31250000 </v>
   <v>       0.06250000      -0.43750000       0.31250000 </v>
   <v>       0.18750000      -0.43750000       0.31250000 </v>
   <v>       0.31250000      -0.43750000       0.31250000 </v>
   <v>       0.43750000      -0.43750000       0.31250000 </v>
   <v>      -0.43750000      -0.43750000       0.31250000 </v>
   <v>      -0.31250000      -0.43750000       0.31250000 </v>
   <v>      -0.18750000      -0.43750000       0.31250000 </v>
   <v>      -0.06250000      -0.43750000       0.31250000 </v>
   <v>       0.06250000      -0.31250000       0.31250000 </v>
   <v>       0.18750000      -0.31250000       0.31250000 </v>
   <v>       0.31250000      -0.31250000       0.31250000 </v>
   <v>       0.43750000      -0.31250000       0.31250000 </v>
   <v>      -0.43750000      -0.31250000       0.31250000 </v>
   <v>      -0.31250000      -0.31250000       0.31250000 </v>
   <v>      -0.18750000      -0.31250000       0.31250000 </v>
   <v>      -0.06250000      -0.31250000       0.31250000 </v>
   <v>       0.06250000      -0.18750000       0.31250000 </v>
   <v>       0.18750000      -0.18750000       0.31250000 </v>
   <v>       0.31250000      -0.18750000       0.31250000 </v>
   <v>       0.43750000      -0.18750000       0.31250000 </v>
   <v>      -0.43750000      -0.18750000       0.31250000 </v>
   <v>      -0.31250000      -0.18750000       0.31250000 </v>
   <v>      -0.18750000      -0.18750000       0.31250000 </v>
   <v>      -0.06250000      -0.18750000       0.31250000 </v>
   <v>       0.06250000      -0.06250000       0.31250000 </v>
   <v>       0.18750000      -0.06250000       0.31250000 </v>
   <v>       0.31250000      -0.06250000       0.31250000 </v>
   <v>       0.43750000      -0.06250000       0.31250000 </v>
   <v>      -0.43750000      -0.06250000       0.31250000 </v>
   <v>      -0.31250000      -0.06250000       0.31250000 </v>
   <v>      -0.18750000      -0.06250000       0.31250000 </v>
   <v>      -0.06250000      -0.06250000       0.31250000 </v>
   <v>       0.06250000       0.06250000       0.43750000 </v>
   <v>       0.18750000       0.06250000       0.43750000 </v>
   <v>       0.31250000       0.06250000       0.43750000 </v>
   <v>       0.43750000       0.06250000       0.43750000 </v>
   <v>      -0.43750000       0.06250000       0.43750000 </v>
   <v>      -0.31250000       0.06250000       0.43750000 </v>
   <v>      -0.18750000       0.06250000       0.43750000 </v>
   <v>      -0.06250000       0.06250000       0.43750000 </v>
   <v>       0.06250000       0.18750000       0.43750000 </v>
   <v>       0.18750000       0.18750000       0.43750000 </v>
   <v>       0.31250000       0.18750000       0.43750000 </v>
   <v>       0.43750000       0.18750000       0.43750000 </v>
   <v>      -0.43750000       0.18750000       0.43750000 </v>
   <v>      -0.31250000       0.18750000       0.43750000 </v>
   <v>      -0.18750000       0.18750000       0.43750000 </v>
   <v>      -0.06250000       0.18750000       0.43750000 </v>
   <v>       0.06250000       0.31250000       0.43750000 </v>
   <v>       0.18750000       0.31250000       0.43750000 </v>
   <v>       0.31250000       0.31250000       0.43750000 </v>
   <v>       0.43750000       0.31250000       0.43750000 </v>
   <v>      -0.43750000       0.31250000       0.43750000 </v>
   <v>      -0.31250000       0.31250000       0.43750000 </v>
   <v>      -0.18750000       0.31250000       0.43750000 </v>
   <v>      -0.06250000       0.31250000       0.43750000 </v>
   <v>       0.06250000       0.43750000       0.43750000 </v>
   <v>       0.18750000       0.43750000       0.43750000 </v>
   <v>       0.31250000       0.43750000       0.43750000 </v>
   <v>       0.43750000       0.43750000       0.43750000 </v>
   <v>      -0.43750000       0.43750000       0.43750000 </v>
   <v>      -0.31250000       0.43750000       0.43750000 </v>
   <v>      -0.18750000       0.43750000       0.43750000 </v>
   <v>      -0.06250000       0.43750000       0.43750000 </v>
   <v>       0.06250000      -0.43750000       0.43750000 </v>
   <v>       0.18750000      -0.43750000       0.43750000 </v>
   <v>       0.31250000      -0.43750000       0.43750000 </v>
   <v>       0.43750000      -0.43750000       0.43750000 </v>
   <v>      -0.43750000      -0.43750000       0.43750000 </v>
   <v>      -0.31250000      -0.43750000       0.43750000 </v>
   <v>      -0.18750000      -0.43750000       0.43750000 </v>
   <v>      -0.06250000      -0.43750000       0.43750000 </v>
   <v>       0.06250000      -0.31250000       0.43750000 </v>
   <v>       0.18750000      -0.31250000       0.43750000 </v>
   <v>       0.31250000      -0.31250000       0.43750000 </v>
   <v>       0.43750000      -0.31250000       0.43750000 </v>
   <v>      -0.43750000      -0.31250000       0.43750000 </v>
   <v>      -0.31250000      -0.31250000       0.43750000 </v>
   <v>      -0.18750000      -0.31250000       0.43750000 </v>
   <v>      -0.06250000      -0.31250000       0.43750000 </v>
   <v>       0.06250000      -0.18750000       0.43750000 </v>
   <v>       0.18750000      -0.18750000       0.43750000 </v>
   <v>       0.31250000      -0.18750000       0.43750000 </v>
   <v>       0.43750000      -0.18750000       0.43750000 </v>
   <v>      -0.43750000      -0.18750000       0.43750000 </v>
   <v>      -0.31250000      -0.18750000       0.43750000 </v>
   <v>      -0.18750000      -0.18750000       0.43750000 </v>
   <v>      -0.06250000      -0.18750000       0.43750000 </v>
   <v>       0.06250000      -0.06250000       0.43750000 </v>
   <v>       0.18750000      -0.06250000       0.43750000 </v>
   <v>       0.31250000      -0.06250000       0.43750000 </v>
   <v>       0.43750000      -0.06250000       0.43750000 </v>
   <v>      -0.43750000      -0.06250000       0.43750000 </v>
   <v>      -0.31250000      -0.06250000       0.43750000 </v>
   <v>      -0.18750000      -0.06250000       0.43750000 </v>
   <v>      -0.06250000      -0.06250000       0.43750000 </v>
  </varray>
  <varray name="weights" >
   <v>       0.00390625 </v>
   <v>       0.00390625 </v>
   <v>       0.00390625 </v>
   <v>       0.00390625 </v>
   <v>       0.00390625 </v>
   <v>       0.00390625 </v>
   <v>       0.00390625 </v>
   <v>       0.00390625 </v>
   <v>       0.00390625 </v>
   <v>       0.00390625 </v>
   <v>       0.00390625 </v>
   <v>       0.00390625 </v>
   <v>       0.00390625 </v>
   <v>       0.00390625 </v>
   <v>       0.00390625 </v>
   <v>       0.00390625 </v>
   <v>       0.00390625 </v>
   <v>       0.00390625 </v>
   <v>       0.00390625 </v>
   <v>       0.00390625 </v>
   <v>       0.00390625 </v>
   <v>       0.00390625 </v>
   <v>       0.00390625 </v>
   <v>       0.00390625 </v>
   <v>       0.00390625 </v>
   <v>       0.00390625 </v>
   <v>       0.00390625 </v>
   <v>       0.00390625 </v>
   <v>       0.00390625 </v>
   <v>       0.00390625 </v>
   <v>       0.00390625 </v>
   <v>       0.00390625 </v>
   <v>       0.00390625 </v>
   <v>       0.00390625 </v>
   <v>       0.00390625 </v>
   <v>       0.00390625 </v>
   <v>       0.00390625 </v>
   <v>       0.00390625 </v>
   <v>       0.00390625 </v>
   <v>       0.00390625 </v>
   <v>       0.00390625 </v>
   <v>       0.00390625 </v>
   <v>       0.00390625 </v>
   <v>       0.00390625 </v>
   <v>       0.00390625 </v>
   <v>       0.00390625 </v>
   <v>       0.00390625 </v>
   <v>       0.00390625 </v>
   <v>       0.00390625 </v>
   <v>       0.00390625 </v>
   <v>       0.00390625 </v>
   <v>       0.00390625 </v>
   <v>       0.00390625 </v>
   <v>       0.00390625 </v>
   <v>       0.00390625 </v>
   <v>       0.00390625 </v>
   <v>       0.00390625 </v>
   <v>       0.00390625 </v>
   <v>       0.00390625 </v>
   <v>       0.00390625 </v>
   <v>       0.00390625 </v>
   <v>       0.00390625 </v>
   <v>       0.00390625 </v>
   <v>       0.00390625 </v>
   <v>       0.00390625 </v>
   <v>       0.00390625 </v>
   <v>       0.00390625 </v>
   <v>       0.00390625 </v>
   <v>       0.00390625 </v>
   <v>       0.00390625 </v>
   <v>       0.00390625 </v>
   <v>       0.00390625 </v>
   <v>       0.00390625 </v>
   <v>       0.00390625 </v>
   <v>       0.00390625 </v>
   <v>       0.00390625 </v>
   <v>       0.00390625 </v>
   <v>       0.00390625 </v>
   <v>       0.00390625 </v>
   <v>       0.00390625 </v>
   <v>       0.00390625 </v>
   <v>       0.00390625 </v>
   <v>       0.00390625 </v>
   <v>       0.00390625 </v>
   <v>       0.00390625 </v>
   <v>       0.00390625 </v>
   <v>       0.00390625 </v>
   <v>       0.00390625 </v>
   <v>       0.00390625 </v>
   <v>       0.00390625 </v>
   <v>       0.00390625 </v>
   <v>       0.00390625 </v>
   <v>       0.00390625 </v>
   <v>       0.00390625 </v>
   <v>       0.00390625 </v>
   <v>       0.00390625 </v>
   <v>       0.00390625 </v>
   <v>       0.00390625 </v>
   <v>       0.00390625 </v>
   <v>       0.00390625 </v>
   <v>       0.00390625 </v>
   <v>       0.00390625 </v>
   <v>       0.00390625 </v>
   <v>       0.00390625 </v>
   <v>       0.00390625 </v>
   <v>       0.00390625 </v>
   <v>       0.00390625 </v>
   <v>       0.00390625 </v>
   <v>       0.00390625 </v>
   <v>       0.00390625 </v>
   <v>       0.00390625 </v>
   <v>       0.00390625 </v>
   <v>       0.00390625 </v>
   <v>       0.00390625 </v>
   <v>       0.00390625 </v>
   <v>       0.00390625 </v>
   <v>       0.00390625 </v>
   <v>       0.00390625 </v>
   <v>       0.00390625 </v>
   <v>       0.00390625 </v>
   <v>       0.00390625 </v>
   <v>       0.00390625 </v>
   <v>       0.00390625 </v>
   <v>       0.00390625 </v>
   <v>       0.00390625 </v>
   <v>       0.00390625 </v>
   <v>       0.00390625 </v>
   <v>       0.00390625 </v>
   <v>       0.00390625 </v>
   <v>       0.00390625 </v>
   <v>       0.00390625 </v>
   <v>       0.00390625 </v>
   <v>       0.00390625 </v>
   <v>       0.00390625 </v>
   <v>       0.00390625 </v>
   <v>       0.00390625 </v>
   <v>       0.00390625 </v>
   <v>       0.00390625 </v>
   <v>       0.00390625 </v>
   <v>       0.00390625 </v>
   <v>       0.00390625 </v>
   <v>       0.00390625 </v>
   <v>       0.00390625 </v>
   <v>       0.00390625 </v>
   <v>       0.00390625 </v>
   <v>       0.00390625 </v>
   <v>       0.00390625 </v>
   <v>       0.00390625 </v>
   <v>       0.00390625 </v>
   <v>       0.00390625 </v>
   <v>       0.00390625 </v>
   <v>       0.00390625 </v>
   <v>       0.00390625 </v>
   <v>       0.00390625 </v>
   <v>       0.00390625 </v>
   <v>       0.00390625 </v>
   <v>       0.00390625 </v>
   <v>       0.00390625 </v>
   <v>       0.00390625 </v>
   <v>       0.00390625 </v>
   <v>       0.00390625 </v>
   <v>       0.00390625 </v>
   <v>       0.00390625 </v>
   <v>       0.00390625 </v>
   <v>       0.00390625 </v>
   <v>       0.00390625 </v>
   <v>       0.00390625 </v>
   <v>       0.00390625 </v>
   <v>       0.00390625 </v>
   <v>       0.00390625 </v>
   <v>       0.00390625 </v>
   <v>       0.00390625 </v>
   <v>       0.00390625 </v>
   <v>       0.00390625 </v>
   <v>       0.00390625 </v>
   <v>       0.00390625 </v>
   <v>       0.00390625 </v>
   <v>       0.00390625 </v>
   <v>       0.00390625 </v>
   <v>       0.00390625 </v>
   <v>       0.00390625 </v>
   <v>       0.00390625 </v>
   <v>       0.00390625 </v>
   <v>       0.00390625 </v>
   <v>       0.00390625 </v>
   <v>       0.00390625 </v>
   <v>       0.00390625 </v>
   <v>       0.00390625 </v>
   <v>       0.00390625 </v>
   <v>       0.00390625 </v>
   <v>       0.00390625 </v>
   <v>       0.00390625 </v>
   <v>       0.00390625 </v>
   <v>       0.00390625 </v>
   <v>       0.00390625 </v>
   <v>       0.00390625 </v>
   <v>       0.00390625 </v>
   <v>       0.00390625 </v>
   <v>       0.00390625 </v>
   <v>       0.00390625 </v>
   <v>       0.00390625 </v>
   <v>       0.00390625 </v>
   <v>       0.00390625 </v>
   <v>       0.00390625 </v>
   <v>       0.00390625 </v>
   <v>       0.00390625 </v>
   <v>       0.00390625 </v>
   <v>       0.00390625 </v>
   <v>       0.00390625 </v>
   <v>       0.00390625 </v>
   <v>       0.00390625 </v>
   <v>       0.00390625 </v>
   <v>       0.00390625 </v>
   <v>       0.00390625 </v>
   <v>       0.00390625 </v>
   <v>       0.00390625 </v>
   <v>       0.00390625 </v>
   <v>       0.00390625 </v>
   <v>       0.00390625 </v>
   <v>       0.00390625 </v>
   <v>       0.00390625 </v>
   <v>       0.00390625 </v>
   <v>       0.00390625 </v>
   <v>       0.00390625 </v>
   <v>       0.00390625 </v>
   <v>       0.00390625 </v>
   <v>       0.00390625 </v>
   <v>       0.00390625 </v>
   <v>       0.00390625 </v>
   <v>       0.00390625 </v>
   <v>       0.00390625 </v>
   <v>       0.00390625 </v>
   <v>       0.00390625 </v>
   <v>       0.00390625 </v>
   <v>       0.00390625 </v>
   <v>       0.00390625 </v>
   <v>       0.00390625 </v>
   <v>       0.00390625 </v>
   <v>       0.00390625 </v>
   <v>       0.00390625 </v>
   <v>       0.00390625 </v>
   <v>       0.00390625 </v>
   <v>       0.00390625 </v>
   <v>       0.00390625 </v>
   <v>       0.00390625 </v>
   <v>       0.00390625 </v>
   <v>       0.00390625 </v>
   <v>       0.00390625 </v>
   <v>       0.00390625 </v>
   <v>       0.00390625 </v>
   <v>       0.00390625 </v>
   <v>       0.00390625 </v>
   <v>       0.00390625 </v>
   <v>       0.00390625 </v>
   <v>       0.00390625 </v>
   <v>       0.00390625 </v>
  </varray>
  <varray name="tetrahedronlist"  type="int" >
   <v type="int" >        2        1        2       10       65 </v>
   <v type="int" >        2        1        9       10       65 </v>
   <v type="int" >        2        9       10       65       73 </v>
   <v type="int" >        2        2       10       65       66 </v>
   <v type="int" >        2       10       65       66       74 </v>
   <v type="int" >        2       10       65       73       74 </v>
   <v type="int" >        2        2        3       11       66 </v>
   <v type="int" >        2        2       10       11       66 </v>
   <v type="int" >        2       10       11       66       74 </v>
   <v type="int" >        2        3       11       66       67 </v>
   <v type="int" >        2       11       66       67       75 </v>
   <v type="int" >        2       11       66       74       75 </v>
   <v type="int" >        2        3        4       12       67 </v>
   <v type="int" >        2        3       11       12       67 </v>
   <v type="int" >        2       11       12       67       75 </v>
   <v type="int" >        2        4       12       67       68 </v>
   <v type="int" >        2       12       67       68       76 </v>
   <v type="int" >        2       12       67       75       76 </v>
   <v type="int" >        2        4        5       13       68 </v>
   <v type="int" >        2        4       12       13       68 </v>
   <v type="int" >        2       12       13       68       76 </v>
   <v type="int" >        2        5       13       68       69 </v>
   <v type="int" >        2       13       68       69       77 </v>
   <v type="int" >        2       13       68       76       77 </v>
   <v type="int" >        2        5        6       14       69 </v>
   <v type="int" >        2        5       13       14       69 </v>
   <v type="int" >        2       13       14       69       77 </v>
   <v type="int" >        2        6       14       69       70 </v>
   <v type="int" >        2       14       69       70       78 </v>
   <v type="int" >        2       14       69       77       78 </v>
   <v type="int" >        2        6        7       15       70 </v>
   <v type="int" >        2        6       14       15       70 </v>
   <v type="int" >        2       14       15       70       78 </v>
   <v type="int" >        2        7       15       70       71 </v>
   <v type="int" >        2       15       70       71       79 </v>
   <v type="int" >        2       15       70       78       79 </v>
   <v type="int" >        2        7        8       16       71 </v>
   <v type="int" >        2        7       15       16       71 </v>
   <v type="int" >        2       15       16       71       79 </v>
   <v type="int" >        2        8       16       71       72 </v>
   <v type="int" >        2       16       71       72       80 </v>
   <v type="int" >        2       16       71       79       80 </v>
   <v type="int" >        2        1        8        9       72 </v>
   <v type="int" >        2        8        9       16       72 </v>
   <v type="int" >        2        9       16       72       80 </v>
   <v type="int" >        2        1        9       65       72 </v>
   <v type="int" >        2        9       65       72       73 </v>
   <v type="int" >        2        9       72       73       80 </v>
   <v type="int" >        2        9       10       18       73 </v>
   <v type="int" >        2        9       17       18       73 </v>
   <v type="int" >        2       17       18       73       81 </v>
   <v type="int" >        2       10       18       73       74 </v>
   <v type="int" >        2       18       73       74       82 </v>
   <v type="int" >        2       18       73       81       82 </v>
   <v type="int" >        2       10       11       19       74 </v>
   <v type="int" >        2       10       18       19       74 </v>
   <v type="int" >        2       18       19       74       82 </v>
   <v type="int" >        2       11       19       74       75 </v>
   <v type="int" >        2       19       74       75       83 </v>
   <v type="int" >        2       19       74       82       83 </v>
   <v type="int" >        2       11       12       20       75 </v>
   <v type="int" >        2       11       19       20       75 </v>
   <v type="int" >        2       19       20       75       83 </v>
   <v type="int" >        2       12       20       75       76 </v>
   <v type="int" >        2       20       75       76       84 </v>
   <v type="int" >        2       20       75       83       84 </v>
   <v type="int" >        2       12       13       21       76 </v>
   <v type="int" >        2       12       20       21       76 </v>
   <v type="int" >        2       20       21       76       84 </v>
   <v type="int" >        2       13       21       76       77 </v>
   <v type="int" >        2       21       76       77       85 </v>
   <v type="int" >        2       21       76       84       85 </v>
   <v type="int" >        2       13       14       22       77 </v>
   <v type="int" >        2       13       21       22       77 </v>
   <v type="int" >        2       21       22       77       85 </v>
   <v type="int" >        2       14       22       77       78 </v>
   <v type="int" >        2       22       77       78       86 </v>
   <v type="int" >        2       22       77       85       86 </v>
   <v type="int" >        2       14       15       23       78 </v>
   <v type="int" >        2       14       22       23       78 </v>
   <v type="int" >        2       22       23       78       86 </v>
   <v type="int" >        2       15       23       78       79 </v>
   <v type="int" >        2       23       78       79       87 </v>
   <v type="int" >        2       23       78       86       87 </v>
   <v type="int" >        2       15       16       24       79 </v>
   <v type="int" >        2       15       23       24       79 </v>
   <v type="int" >        2       23       24       79       87 </v>
   <v type="int" >        2       16       24       79       80 </v>
   <v type="int" >        2       24       79       80       88 </v>
   <v type="int" >        2       24       79       87       88 </v>
   <v type="int" >        2        9       16       17       80 </v>
   <v type="int" >        2       16       17       24       80 </v>
   <v type="int" >        2       17       24       80       88 </v>
   <v type="int" >        2        9       17       73       80 </v>
   <v type="int" >        2       17       73       80       81 </v>
   <v type="int" >        2       17       80       81       88 </v>
   <v type="int" >        2       17       18       26       81 </v>
   <v type="int" >        2       17       25       26       81 </v>
   <v type="int" >        2       25       26       81       89 </v>
   <v type="int" >        2       18       26       81       82 </v>
   <v type="int" >        2       26       81       82       90 </v>
   <v type="int" >        2       26       81       89       90 </v>
   <v type="int" >        2       18       19       27       82 </v>
   <v type="int" >        2       18       26       27       82 </v>
   <v type="int" >        2       26       27       82       90 </v>
   <v type="int" >        2       19       27       82       83 </v>
   <v type="int" >        2       27       82       83       91 </v>
   <v type="int" >        2       27       82       90       91 </v>
   <v type="int" >        2       19       20       28       83 </v>
   <v type="int" >        2       19       27       28       83 </v>
   <v type="int" >        2       27       28       83       91 </v>
   <v type="int" >        2       20       28       83       84 </v>
   <v type="int" >        2       28       83       84       92 </v>
   <v type="int" >        2       28       83       91       92 </v>
   <v type="int" >        2       20       21       29       84 </v>
   <v type="int" >        2       20       28       29       84 </v>
   <v type="int" >        2       28       29       84       92 </v>
   <v type="int" >        2       21       29       84       85 </v>
   <v type="int" >        2       29       84       85       93 </v>
   <v type="int" >        2       29       84       92       93 </v>
   <v type="int" >        2       21       22       30       85 </v>
   <v type="int" >        2       21       29       30       85 </v>
   <v type="int" >        2       29       30       85       93 </v>
   <v type="int" >        2       22       30       85       86 </v>
   <v type="int" >        2       30       85       86       94 </v>
   <v type="int" >        2       30       85       93       94 </v>
   <v type="int" >        2       22       23       31       86 </v>
   <v type="int" >        2       22       30       31       86 </v>
   <v type="int" >        2       30       31       86       94 </v>
   <v type="int" >        2       23       31       86       87 </v>
   <v type="int" >        2       31       86       87       95 </v>
   <v type="int" >        2       31       86       94       95 </v>
   <v type="int" >        2       23       24       32       87 </v>
   <v type="int" >        2       23       31       32       87 </v>
   <v type="int" >        2       31       32       87       95 </v>
   <v type="int" >        2       24       32       87       88 </v>
   <v type="int" >        2       32       87       88       96 </v>
   <v type="int" >        2       32       87       95       96 </v>
   <v type="int" >        2       17       24       25       88 </v>
   <v type="int" >        2       24       25       32       88 </v>
   <v type="int" >        2       25       32       88       96 </v>
   <v type="int" >        2       17       25       81       88 </v>
   <v type="int" >        2       25       81       88       89 </v>
   <v type="int" >        2       25       88       89       96 </v>
   <v type="int" >        2       25       26       34       89 </v>
   <v type="int" >        2       25       33       34       89 </v>
   <v type="int" >        2       33       34       89       97 </v>
   <v type="int" >        2       26       34       89       90 </v>
   <v type="int" >        2       34       89       90       98 </v>
   <v type="int" >        2       34       89       97       98 </v>
   <v type="int" >        2       26       27       35       90 </v>
   <v type="int" >        2       26       34       35       90 </v>
   <v type="int" >        2       34       35       90       98 </v>
   <v type="int" >        2       27       35       90       91 </v>
   <v type="int" >        2       35       90       91       99 </v>
   <v type="int" >        2       35       90       98       99 </v>
   <v type="int" >        2       27       28       36       91 </v>
   <v type="int" >        2       27       35       36       91 </v>
   <v type="int" >        2       35       36       91       99 </v>
   <v type="int" >        2       28       36       91       92 </v>
   <v type="int" >        2       36       91       92      100 </v>
   <v type="int" >        2       36       91       99      100 </v>
   <v type="int" >        2       28       29       37       92 </v>
   <v type="int" >        2       28       36       37       92 </v>
   <v type="int" >        2       36       37       92      100 </v>
   <v type="int" >        2       29       37       92       93 </v>
   <v type="int" >        2       37       92       93      101 </v>
   <v type="int" >        2       37       92      100      101 </v>
   <v type="int" >        2       29       30       38       93 </v>
   <v type="int" >        2       29       37       38       93 </v>
   <v type="int" >        2       37       38       93      101 </v>
   <v type="int" >        2       30       38       93       94 </v>
   <v type="int" >        2       38       93       94      102 </v>
   <v type="int" >        2       38       93      101      102 </v>
   <v type="int" >        2       30       31       39       94 </v>
   <v type="int" >        2       30       38       39       94 </v>
   <v type="int" >        2       38       39       94      102 </v>
   <v type="int" >        2       31       39       94       95 </v>
   <v type="int" >        2       39       94       95      103 </v>
   <v type="int" >        2       39       94      102      103 </v>
   <v type="int" >        2       31       32       40       95 </v>
   <v type="int" >        2       31       39       40       95 </v>
   <v type="int" >        2       39       40       95      103 </v>
   <v type="int" >        2       32       40       95       96 </v>
   <v type="int" >        2       40       95       96      104 </v>
   <v type="int" >        2       40       95      103      104 </v>
   <v type="int" >        2       25       32       33       96 </v>
   <v type="int" >        2       32       33       40       96 </v>
   <v type="int" >        2       33       40       96      104 </v>
   <v type="int" >        2       25       33       89       96 </v>
   <v type="int" >        2       33       89       96       97 </v>
   <v type="int" >        2       33       96       97      104 </v>
   <v type="int" >        2       33       34       42       97 </v>
   <v type="int" >        2       33       41       42       97 </v>
   <v type="int" >        2       41       42       97      105 </v>
   <v type="int" >        2       34       42       97       98 </v>
   <v type="int" >        2       42       97       98      106 </v>
   <v type="int" >        2       42       97      105      106 </v>
   <v type="int" >        2       34       35       43       98 </v>
   <v type="int" >        2       34       42       43       98 </v>
   <v type="int" >        2       42       43       98      106 </v>
   <v type="int" >        2       35       43       98       99 </v>
   <v type="int" >        2       43       98       99      107 </v>
   <v type="int" >        2       43       98      106      107 </v>
   <v type="int" >        2       35       36       44       99 </v>
   <v type="int" >        2       35       43       44       99 </v>
   <v type="int" >        2       43       44       99      107 </v>
   <v type="int" >        2       36       44       99      100 </v>
   <v type="int" >        2       44       99      100      108 </v>
   <v type="int" >        2       44       99      107      108 </v>
   <v type="int" >        2       36       37       45      100 </v>
   <v type="int" >        2       36       44       45      100 </v>
   <v type="int" >        2       44       45      100      108 </v>
   <v type="int" >        2       37       45      100      101 </v>
   <v type="int" >        2       45      100      101      109 </v>
   <v type="int" >        2       45      100      108      109 </v>
   <v type="int" >        2       37       38       46      101 </v>
   <v type="int" >        2       37       45       46      101 </v>
   <v type="int" >        2       45       46      101      109 </v>
   <v type="int" >        2       38       46      101      102 </v>
   <v type="int" >        2       46      101      102      110 </v>
   <v type="int" >        2       46      101      109      110 </v>
   <v type="int" >        2       38       39       47      102 </v>
   <v type="int" >        2       38       46       47      102 </v>
   <v type="int" >        2       46       47      102      110 </v>
   <v type="int" >        2       39       47      102      103 </v>
   <v type="int" >        2       47      102      103      111 </v>
   <v type="int" >        2       47      102      110      111 </v>
   <v type="int" >        2       39       40       48      103 </v>
   <v type="int" >        2       39       47       48      103 </v>
   <v type="int" >        2       47       48      103      111 </v>
   <v type="int" >        2       40       48      103      104 </v>
   <v type="int" >        2       48      103      104      112 </v>
   <v type="int" >        2       48      103      111      112 </v>
   <v type="int" >        2       33       40       41      104 </v>
   <v type="int" >        2       40       41       48      104 </v>
   <v type="int" >        2       41       48      104      112 </v>
   <v type="int" >        2       33       41       97      104 </v>
   <v type="int" >        2       41       97      104      105 </v>
   <v type="int" >        2       41      104      105      112 </v>
   <v type="int" >        2       41       42       50      105 </v>
   <v type="int" >        2       41       49       50      105 </v>
   <v type="int" >        2       49       50      105      113 </v>
   <v type="int" >        2       42       50      105      106 </v>
   <v type="int" >        2       50      105      106      114 </v>
   <v type="int" >        2       50      105      113      114 </v>
   <v type="int" >        2       42       43       51      106 </v>
   <v type="int" >        2       42       50       51      106 </v>
   <v type="int" >        2       50       51      106      114 </v>
   <v type="int" >        2       43       51      106      107 </v>
   <v type="int" >        2       51      106      107      115 </v>
   <v type="int" >        2       51      106      114      115 </v>
   <v type="int" >        2       43       44       52      107 </v>
   <v type="int" >        2       43       51       52      107 </v>
   <v type="int" >        2       51       52      107      115 </v>
   <v type="int" >        2       44       52      107      108 </v>
   <v type="int" >        2       52      107      108      116 </v>
   <v type="int" >        2       52      107      115      116 </v>
   <v type="int" >        2       44       45       53      108 </v>
   <v type="int" >        2       44       52       53      108 </v>
   <v type="int" >        2       52       53      108      116 </v>
   <v type="int" >        2       45       53      108      109 </v>
   <v type="int" >        2       53      108      109      117 </v>
   <v type="int" >        2       53      108      116      117 </v>
   <v type="int" >        2       45       46       54      109 </v>
   <v type="int" >        2       45       53       54      109 </v>
   <v type="int" >        2       53       54      109      117 </v>
   <v type="int" >        2       46       54      109      110 </v>
   <v type="int" >        2       54      109      110      118 </v>
   <v type="int" >        2       54      109      117      118 </v>
   <v type="int" >        2       46       47       55      110 </v>
   <v type="int" >        2       46       54       55      110 </v>
   <v type="int" >        2       54       55      110      118 </v>
   <v type="int" >        2       47       55      110      111 </v>
   <v type="int" >        2       55      110      111      119 </v>
   <v type="int" >        2       55      110      118      119 </v>
   <v type="int" >        2       47       48       56      111 </v>
   <v type="int" >        2       47       55       56      111 </v>
   <v type="int" >        2       55       56      111      119 </v>
   <v type="int" >        2       48       56      111      112 </v>
   <v type="int" >        2       56      111      112      120 </v>
   <v type="int" >        2       56      111      119      120 </v>
   <v type="int" >        2       41       48       49      112 </v>
   <v type="int" >        2       48       49       56      112 </v>
   <v type="int" >        2       49       56      112      120 </v>
   <v type="int" >        2       41       49      105      112 </v>
   <v type="int" >        2       49      105      112      113 </v>
   <v type="int" >        2       49      112      113      120 </v>
   <v type="int" >        2       49       50       58      113 </v>
   <v type="int" >        2       49       57       58      113 </v>
   <v type="int" >        2       57       58      113      121 </v>
   <v type="int" >        2       50       58      113      114 </v>
   <v type="int" >        2       58      113      114      122 </v>
   <v type="int" >        2       58      113      121      122 </v>
   <v type="int" >        2       50       51       59      114 </v>
   <v type="int" >        2       50       58       59      114 </v>
   <v type="int" >        2       58       59      114      122 </v>
   <v type="int" >        2       51       59      114      115 </v>
   <v type="int" >        2       59      114      115      123 </v>
   <v type="int" >        2       59      114      122      123 </v>
   <v type="int" >        2       51       52       60      115 </v>
   <v type="int" >        2       51       59       60      115 </v>
   <v type="int" >        2       59       60      115      123 </v>
   <v type="int" >        2       52       60      115      116 </v>
   <v type="int" >        2       60      115      116      124 </v>
   <v type="int" >        2       60      115      123      124 </v>
   <v type="int" >        2       52       53       61      116 </v>
   <v type="int" >        2       52       60       61      116 </v>
   <v type="int" >        2       60       61      116      124 </v>
   <v type="int" >        2       53       61      116      117 </v>
   <v type="int" >        2       61      116      117      125 </v>
   <v type="int" >        2       61      116      124      125 </v>
   <v type="int" >        2       53       54       62      117 </v>
   <v type="int" >        2       53       61       62      117 </v>
   <v type="int" >        2       61       62      117      125 </v>
   <v type="int" >        2       54       62      117      118 </v>
   <v type="int" >        2       62      117      118      126 </v>
   <v type="int" >        2       62      117      125      126 </v>
   <v type="int" >        2       54       55       63      118 </v>
   <v type="int" >        2       54       62       63      118 </v>
   <v type="int" >        2       62       63      118      126 </v>
   <v type="int" >        2       55       63      118      119 </v>
   <v type="int" >        2       63      118      119      127 </v>
   <v type="int" >        2       63      118      126      127 </v>
   <v type="int" >        2       55       56       64      119 </v>
   <v type="int" >        2       55       63       64      119 </v>
   <v type="int" >        2       63       64      119      127 </v>
   <v type="int" >        2       56       64      119      120 </v>
   <v type="int" >        2       64      119      120      128 </v>
   <v type="int" >        2       64      119      127      128 </v>
   <v type="int" >        2       49       56       57      120 </v>
   <v type="int" >        2       56       57       64      120 </v>
   <v type="int" >        2       57       64      120      128 </v>
   <v type="int" >        2       49       57      113      120 </v>
   <v type="int" >        2       57      113      120      121 </v>
   <v type="int" >        2       57      120      121      128 </v>
   <v type="int" >        2        2       57       58      121 </v>
   <v type="int" >        2        1        2       57      121 </v>
   <v type="int" >        2        1        2       65      121 </v>
   <v type="int" >        2        2       58      121      122 </v>
   <v type="int" >        2        2       66      121      122 </v>
   <v type="int" >        2        2       65       66      121 </v>
   <v type="int" >        2        3       58       59      122 </v>
   <v type="int" >        2        2        3       58      122 </v>
   <v type="int" >        2        2        3       66      122 </v>
   <v type="int" >        2        3       59      122      123 </v>
   <v type="int" >        2        3       67      122      123 </v>
   <v type="int" >        2        3       66       67      122 </v>
   <v type="int" >        2        4       59       60      123 </v>
   <v type="int" >        2        3        4       59      123 </v>
   <v type="int" >        2        3        4       67      123 </v>
   <v type="int" >        2        4       60      123      124 </v>
   <v type="int" >        2        4       68      123      124 </v>
   <v type="int" >        2        4       67       68      123 </v>
   <v type="int" >        2        5       60       61      124 </v>
   <v type="int" >        2        4        5       60      124 </v>
   <v type="int" >        2        4        5       68      124 </v>
   <v type="int" >        2        5       61      124      125 </v>
   <v type="int" >        2        5       69      124      125 </v>
   <v type="int" >        2        5       68       69      124 </v>
   <v type="int" >        2        6       61       62      125 </v>
   <v type="int" >        2        5        6       61      125 </v>
   <v type="int" >        2        5        6       69      125 </v>
   <v type="int" >        2        6       62      125      126 </v>
   <v type="int" >        2        6       70      125      126 </v>
   <v type="int" >        2        6       69       70      125 </v>
   <v type="int" >        2        7       62       63      126 </v>
   <v type="int" >        2        6        7       62      126 </v>
   <v type="int" >        2        6        7       70      126 </v>
   <v type="int" >        2        7       63      126      127 </v>
   <v type="int" >        2        7       71      126      127 </v>
   <v type="int" >        2        7       70       71      126 </v>
   <v type="int" >        2        8       63       64      127 </v>
   <v type="int" >        2        7        8       63      127 </v>
   <v type="int" >        2        7        8       71      127 </v>
   <v type="int" >        2        8       64      127      128 </v>
   <v type="int" >        2        8       72      127      128 </v>
   <v type="int" >        2        8       71       72      127 </v>
   <v type="int" >        2        1       57       64      128 </v>
   <v type="int" >        2        1        8       64      128 </v>
   <v type="int" >        2        1        8       72      128 </v>
   <v type="int" >        2        1       57      121      128 </v>
   <v type="int" >        2        1       65      121      128 </v>
   <v type="int" >        2        1       65       72      128 </v>
   <v type="int" >        2       65       66       74      129 </v>
   <v type="int" >        2       65       73       74      129 </v>
   <v type="int" >        2       73       74      129      137 </v>
   <v type="int" >        2       66       74      129      130 </v>
   <v type="int" >        2       74      129      130      138 </v>
   <v type="int" >        2       74      129      137      138 </v>
   <v type="int" >        2       66       67       75      130 </v>
   <v type="int" >        2       66       74       75      130 </v>
   <v type="int" >        2       74       75      130      138 </v>
   <v type="int" >        2       67       75      130      131 </v>
   <v type="int" >        2       75      130      131      139 </v>
   <v type="int" >        2       75      130      138      139 </v>
   <v type="int" >        2       67       68       76      131 </v>
   <v type="int" >        2       67       75       76      131 </v>
   <v type="int" >        2       75       76      131      139 </v>
   <v type="int" >        2       68       76      131      132 </v>
   <v type="int" >        2       76      131      132      140 </v>
   <v type="int" >        2       76      131      139      140 </v>
   <v type="int" >        2       68       69       77      132 </v>
   <v type="int" >        2       68       76       77      132 </v>
   <v type="int" >        2       76       77      132      140 </v>
   <v type="int" >        2       69       77      132      133 </v>
   <v type="int" >        2       77      132      133      141 </v>
   <v type="int" >        2       77      132      140      141 </v>
   <v type="int" >        2       69       70       78      133 </v>
   <v type="int" >        2       69       77       78      133 </v>
   <v type="int" >        2       77       78      133      141 </v>
   <v type="int" >        2       70       78      133      134 </v>
   <v type="int" >        2       78      133      134      142 </v>
   <v type="int" >        2       78      133      141      142 </v>
   <v type="int" >        2       70       71       79      134 </v>
   <v type="int" >        2       70       78       79      134 </v>
   <v type="int" >        2       78       79      134      142 </v>
   <v type="int" >        2       71       79      134      135 </v>
   <v type="int" >        2       79      134      135      143 </v>
   <v type="int" >        2       79      134      142      143 </v>
   <v type="int" >        2       71       72       80      135 </v>
   <v type="int" >        2       71       79       80      135 </v>
   <v type="int" >        2       79       80      135      143 </v>
   <v type="int" >        2       72       80      135      136 </v>
   <v type="int" >        2       80      135      136      144 </v>
   <v type="int" >        2       80      135      143      144 </v>
   <v type="int" >        2       65       72       73      136 </v>
   <v type="int" >        2       72       73       80      136 </v>
   <v type="int" >        2       73       80      136      144 </v>
   <v type="int" >        2       65       73      129      136 </v>
   <v type="int" >        2       73      129      136      137 </v>
   <v type="int" >        2       73      136      137      144 </v>
   <v type="int" >        2       73       74       82      137 </v>
   <v type="int" >        2       73       81       82      137 </v>
   <v type="int" >        2       81       82      137      145 </v>
   <v type="int" >        2       74       82      137      138 </v>
   <v type="int" >        2       82      137      138      146 </v>
   <v type="int" >        2       82      137      145      146 </v>
   <v type="int" >        2       74       75       83      138 </v>
   <v type="int" >        2       74       82       83      138 </v>
   <v type="int" >        2       82       83      138      146 </v>
   <v type="int" >        2       75       83      138      139 </v>
   <v type="int" >        2       83      138      139      147 </v>
   <v type="int" >        2       83      138      146      147 </v>
   <v type="int" >        2       75       76       84      139 </v>
   <v type="int" >        2       75       83       84      139 </v>
   <v type="int" >        2       83       84      139      147 </v>
   <v type="int" >        2       76       84      139      140 </v>
   <v type="int" >        2       84      139      140      148 </v>
   <v type="int" >        2       84      139      147      148 </v>
   <v type="int" >        2       76       77       85      140 </v>
   <v type="int" >        2       76       84       85      140 </v>
   <v type="int" >        2       84       85      140      148 </v>
   <v type="int" >        2       77       85      140      141 </v>
   <v type="int" >        2       85      140      141      149 </v>
   <v type="int" >        2       85      140      148      149 </v>
   <v type="int" >        2       77       78       86      141 </v>
   <v type="int" >        2       77       85       86      141 </v>
   <v type="int" >        2       85       86      141      149 </v>
   <v type="int" >        2       78       86      141      142 </v>
   <v type="int" >        2       86      141      142      150 </v>
   <v type="int" >        2       86      141      149      150 </v>
   <v type="int" >        2       78       79       87      142 </v>
   <v type="int" >        2       78       86       87      142 </v>
   <v type="int" >        2       86       87      142      150 </v>
   <v type="int" >        2       79       87      142      143 </v>
   <v type="int" >        2       87      142      143      151 </v>
   <v type="int" >        2       87      142      150      151 </v>
   <v type="int" >        2       79       80       88      143 </v>
   <v type="int" >        2       79       87       88      143 </v>
   <v type="int" >        2       87       88      143      151 </v>
   <v type="int" >        2       80       88      143      144 </v>
   <v type="int" >        2       88      143      144      152 </v>
   <v type="int" >        2       88      143      151      152 </v>
   <v type="int" >        2       73       80       81      144 </v>
   <v type="int" >        2       80       81       88      144 </v>
   <v type="int" >        2       81       88      144      152 </v>
   <v type="int" >        2       73       81      137      144 </v>
   <v type="int" >        2       81      137      144      145 </v>
   <v type="int" >        2       81      144      145      152 </v>
   <v type="int" >        2       81       82       90      145 </v>
   <v type="int" >        2       81       89       90      145 </v>
   <v type="int" >        2       89       90      145      153 </v>
   <v type="int" >        2       82       90      145      146 </v>
   <v type="int" >        2       90      145      146      154 </v>
   <v type="int" >        2       90      145      153      154 </v>
   <v type="int" >        2       82       83       91      146 </v>
   <v type="int" >        2       82       90       91      146 </v>
   <v type="int" >        2       90       91      146      154 </v>
   <v type="int" >        2       83       91      146      147 </v>
   <v type="int" >        2       91      146      147      155 </v>
   <v type="int" >        2       91      146      154      155 </v>
   <v type="int" >        2       83       84       92      147 </v>
   <v type="int" >        2       83       91       92      147 </v>
   <v type="int" >        2       91       92      147      155 </v>
   <v type="int" >        2       84       92      147      148 </v>
   <v type="int" >        2       92      147      148      156 </v>
   <v type="int" >        2       92      147      155      156 </v>
   <v type="int" >        2       84       85       93      148 </v>
   <v type="int" >        2       84       92       93      148 </v>
   <v type="int" >        2       92       93      148      156 </v>
   <v type="int" >        2       85       93      148      149 </v>
   <v type="int" >        2       93      148      149      157 </v>
   <v type="int" >        2       93      148      156      157 </v>
   <v type="int" >        2       85       86       94      149 </v>
   <v type="int" >        2       85       93       94      149 </v>
   <v type="int" >        2       93       94      149      157 </v>
   <v type="int" >        2       86       94      149      150 </v>
   <v type="int" >        2       94      149      150      158 </v>
   <v type="int" >        2       94      149      157      158 </v>
   <v type="int" >        2       86       87       95      150 </v>
   <v type="int" >        2       86       94       95      150 </v>
   <v type="int" >        2       94       95      150      158 </v>
   <v type="int" >        2       87       95      150      151 </v>
   <v type="int" >        2       95      150      151      159 </v>
   <v type="int" >        2       95      150      158      159 </v>
   <v type="int" >        2       87       88       96      151 </v>
   <v type="int" >        2       87       95       96      151 </v>
   <v type="int" >        2       95       96      151      159 </v>
   <v type="int" >        2       88       96      151      152 </v>
   <v type="int" >        2       96      151      152      160 </v>
   <v type="int" >        2       96      151      159      160 </v>
   <v type="int" >        2       81       88       89      152 </v>
   <v type="int" >        2       88       89       96      152 </v>
   <v type="int" >        2       89       96      152      160 </v>
   <v type="int" >        2       81       89      145      152 </v>
   <v type="int" >        2       89      145      152      153 </v>
   <v type="int" >        2       89      152      153      160 </v>
   <v type="int" >        2       89       90       98      153 </v>
   <v type="int" >        2       89       97       98      153 </v>
   <v type="int" >        2       97       98      153      161 </v>
   <v type="int" >        2       90       98      153      154 </v>
   <v type="int" >        2       98      153      154      162 </v>
   <v type="int" >        2       98      153      161      162 </v>
   <v type="int" >        2       90       91       99      154 </v>
   <v type="int" >        2       90       98       99      154 </v>
   <v type="int" >        2       98       99      154      162 </v>
   <v type="int" >        2       91       99      154      155 </v>
   <v type="int" >        2       99      154      155      163 </v>
   <v type="int" >        2       99      154      162      163 </v>
   <v type="int" >        2       91       92      100      155 </v>
   <v type="int" >        2       91       99      100      155 </v>
   <v type="int" >        2       99      100      155      163 </v>
   <v type="int" >        2       92      100      155      156 </v>
   <v type="int" >        2      100      155      156      164 </v>
   <v type="int" >        2      100      155      163      164 </v>
   <v type="int" >        2       92       93      101      156 </v>
   <v type="int" >        2       92      100      101      156 </v>
   <v type="int" >        2      100      101      156      164 </v>
   <v type="int" >        2       93      101      156      157 </v>
   <v type="int" >        2      101      156      157      165 </v>
   <v type="int" >        2      101      156      164      165 </v>
   <v type="int" >        2       93       94      102      157 </v>
   <v type="int" >        2       93      101      102      157 </v>
   <v type="int" >        2      101      102      157      165 </v>
   <v type="int" >        2       94      102      157      158 </v>
   <v type="int" >        2      102      157      158      166 </v>
   <v type="int" >        2      102      157      165      166 </v>
   <v type="int" >        2       94       95      103      158 </v>
   <v type="int" >        2       94      102      103      158 </v>
   <v type="int" >        2      102      103      158      166 </v>
   <v type="int" >        2       95      103      158      159 </v>
   <v type="int" >        2      103      158      159      167 </v>
   <v type="int" >        2      103      158      166      167 </v>
   <v type="int" >        2       95       96      104      159 </v>
   <v type="int" >        2       95      103      104      159 </v>
   <v type="int" >        2      103      104      159      167 </v>
   <v type="int" >        2       96      104      159      160 </v>
   <v type="int" >        2      104      159      160      168 </v>
   <v type="int" >        2      104      159      167      168 </v>
   <v type="int" >        2       89       96       97      160 </v>
   <v type="int" >        2       96       97      104      160 </v>
   <v type="int" >        2       97      104      160      168 </v>
   <v type="int" >        2       89       97      153      160 </v>
   <v type="int" >        2       97      153      160      161 </v>
   <v type="int" >        2       97      160      161      168 </v>
   <v type="int" >        2       97       98      106      161 </v>
   <v type="int" >        2       97      105      106      161 </v>
   <v type="int" >        2      105      106      161      169 </v>
   <v type="int" >        2       98      106      161      162 </v>
   <v type="int" >        2      106      161      162      170 </v>
   <v type="int" >        2      106      161      169      170 </v>
   <v type="int" >        2       98       99      107      162 </v>
   <v type="int" >        2       98      106      107      162 </v>
   <v type="int" >        2      106      107      162      170 </v>
   <v type="int" >        2       99      107      162      163 </v>
   <v type="int" >        2      107      162      163      171 </v>
   <v type="int" >        2      107      162      170      171 </v>
   <v type="int" >        2       99      100      108      163 </v>
   <v type="int" >        2       99      107      108      163 </v>
   <v type="int" >        2      107      108      163      171 </v>
   <v type="int" >        2      100      108      163      164 </v>
   <v type="int" >        2      108      163      164      172 </v>
   <v type="int" >        2      108      163      171      172 </v>
   <v type="int" >        2      100      101      109      164 </v>
   <v type="int" >        2      100      108      109      164 </v>
   <v type="int" >        2      108      109      164      172 </v>
   <v type="int" >        2      101      109      164      165 </v>
   <v type="int" >        2      109      164      165      173 </v>
   <v type="int" >        2      109      164      172      173 </v>
   <v type="int" >        2      101      102      110      165 </v>
   <v type="int" >        2      101      109      110      165 </v>
   <v type="int" >        2      109      110      165      173 </v>
   <v type="int" >        2      102      110      165      166 </v>
   <v type="int" >        2      110      165      166      174 </v>
   <v type="int" >        2      110      165      173      174 </v>
   <v type="int" >        2      102      103      111      166 </v>
   <v type="int" >        2      102      110      111      166 </v>
   <v type="int" >        2      110      111      166      174 </v>
   <v type="int" >        2      103      111      166      167 </v>
   <v type="int" >        2      111      166      167      175 </v>
   <v type="int" >        2      111      166      174      175 </v>
   <v type="int" >        2      103      104      112      167 </v>
   <v type="int" >        2      103      111      112      167 </v>
   <v type="int" >        2      111      112      167      175 </v>
   <v type="int" >        2      104      112      167      168 </v>
   <v type="int" >        2      112      167      168      176 </v>
   <v type="int" >        2      112      167      175      176 </v>
   <v type="int" >        2       97      104      105      168 </v>
   <v type="int" >        2      104      105      112      168 </v>
   <v type="int" >        2      105      112      168      176 </v>
   <v type="int" >        2       97      105      161      168 </v>
   <v type="int" >        2      105      161      168      169 </v>
   <v type="int" >        2      105      168      169      176 </v>
   <v type="int" >        2      105      106      114      169 </v>
   <v type="int" >        2      105      113      114      169 </v>
   <v type="int" >        2      113      114      169      177 </v>
   <v type="int" >        2      106      114      169      170 </v>
   <v type="int" >        2      114      169      170      178 </v>
   <v type="int" >        2      114      169      177      178 </v>
   <v type="int" >        2      106      107      115      170 </v>
   <v type="int" >        2      106      114      115      170 </v>
   <v type="int" >        2      114      115      170      178 </v>
   <v type="int" >        2      107      115      170      171 </v>
   <v type="int" >        2      115      170      171      179 </v>
   <v type="int" >        2      115      170      178      179 </v>
   <v type="int" >        2      107      108      116      171 </v>
   <v type="int" >        2      107      115      116      171 </v>
   <v type="int" >        2      115      116      171      179 </v>
   <v type="int" >        2      108      116      171      172 </v>
   <v type="int" >        2      116      171      172      180 </v>
   <v type="int" >        2      116      171      179      180 </v>
   <v type="int" >        2      108      109      117      172 </v>
   <v type="int" >        2      108      116      117      172 </v>
   <v type="int" >        2      116      117      172      180 </v>
   <v type="int" >        2      109      117      172      173 </v>
   <v type="int" >        2      117      172      173      181 </v>
   <v type="int" >        2      117      172      180      181 </v>
   <v type="int" >        2      109      110      118      173 </v>
   <v type="int" >        2      109      117      118      173 </v>
   <v type="int" >        2      117      118      173      181 </v>
   <v type="int" >        2      110      118      173      174 </v>
   <v type="int" >        2      118      173      174      182 </v>
   <v type="int" >        2      118      173      181      182 </v>
   <v type="int" >        2      110      111      119      174 </v>
   <v type="int" >        2      110      118      119      174 </v>
   <v type="int" >        2      118      119      174      182 </v>
   <v type="int" >        2      111      119      174      175 </v>
   <v type="int" >        2      119      174      175      183 </v>
   <v type="int" >        2      119      174      182      183 </v>
   <v type="int" >        2      111      112      120      175 </v>
   <v type="int" >        2      111      119      120      175 </v>
   <v type="int" >        2      119      120      175      183 </v>
   <v type="int" >        2      112      120      175      176 </v>
   <v type="int" >        2      120      175      176      184 </v>
   <v type="int" >        2      120      175      183      184 </v>
   <v type="int" >        2      105      112      113      176 </v>
   <v type="int" >        2      112      113      120      176 </v>
   <v type="int" >        2      113      120      176      184 </v>
   <v type="int" >        2      105      113      169      176 </v>
   <v type="int" >        2      113      169      176      177 </v>
   <v type="int" >        2      113      176      177      184 </v>
   <v type="int" >        2      113      114      122      177 </v>
   <v type="int" >        2      113      121      122      177 </v>
   <v type="int" >        2      121      122      177      185 </v>
   <v type="int" >        2      114      122      177      178 </v>
   <v type="int" >        2      122      177      178      186 </v>
   <v type="int" >        2      122      177      185      186 </v>
   <v type="int" >        2      114      115      123      178 </v>
   <v type="int" >        2      114      122      123      178 </v>
   <v type="int" >        2      122      123      178      186 </v>
   <v type="int" >        2      115      123      178      179 </v>
   <v type="int" >        2      123      178      179      187 </v>
   <v type="int" >        2      123      178      186      187 </v>
   <v type="int" >        2      115      116      124      179 </v>
   <v type="int" >        2      115      123      124      179 </v>
   <v type="int" >        2      123      124      179      187 </v>
   <v type="int" >        2      116      124      179      180 </v>
   <v type="int" >        2      124      179      180      188 </v>
   <v type="int" >        2      124      179      187      188 </v>
   <v type="int" >        2      116      117      125      180 </v>
   <v type="int" >        2      116      124      125      180 </v>
   <v type="int" >        2      124      125      180      188 </v>
   <v type="int" >        2      117      125      180      181 </v>
   <v type="int" >        2      125      180      181      189 </v>
   <v type="int" >        2      125      180      188      189 </v>
   <v type="int" >        2      117      118      126      181 </v>
   <v type="int" >        2      117      125      126      181 </v>
   <v type="int" >        2      125      126      181      189 </v>
   <v type="int" >        2      118      126      181      182 </v>
   <v type="int" >        2      126      181      182      190 </v>
   <v type="int" >        2      126      181      189      190 </v>
   <v type="int" >        2      118      119      127      182 </v>
   <v type="int" >        2      118      126      127      182 </v>
   <v type="int" >        2      126      127      182      190 </v>
   <v type="int" >        2      119      127      182      183 </v>
   <v type="int" >        2      127      182      183      191 </v>
   <v type="int" >        2      127      182      190      191 </v>
   <v type="int" >        2      119      120      128      183 </v>
   <v type="int" >        2      119      127      128      183 </v>
   <v type="int" >        2      127      128      183      191 </v>
   <v type="int" >        2      120      128      183      184 </v>
   <v type="int" >        2      128      183      184      192 </v>
   <v type="int" >        2      128      183      191      192 </v>
   <v type="int" >        2      113      120      121      184 </v>
   <v type="int" >        2      120      121      128      184 </v>
   <v type="int" >        2      121      128      184      192 </v>
   <v type="int" >        2      113      121      177      184 </v>
   <v type="int" >        2      121      177      184      185 </v>
   <v type="int" >        2      121      184      185      192 </v>
   <v type="int" >        2       66      121      122      185 </v>
   <v type="int" >        2       65       66      121      185 </v>
   <v type="int" >        2       65       66      129      185 </v>
   <v type="int" >        2       66      122      185      186 </v>
   <v type="int" >        2       66      130      185      186 </v>
   <v type="int" >        2       66      129      130      185 </v>
   <v type="int" >        2       67      122      123      186 </v>
   <v type="int" >        2       66       67      122      186 </v>
   <v type="int" >        2       66       67      130      186 </v>
   <v type="int" >        2       67      123      186      187 </v>
   <v type="int" >        2       67      131      186      187 </v>
   <v type="int" >        2       67      130      131      186 </v>
   <v type="int" >        2       68      123      124      187 </v>
   <v type="int" >        2       67       68      123      187 </v>
   <v type="int" >        2       67       68      131      187 </v>
   <v type="int" >        2       68      124      187      188 </v>
   <v type="int" >        2       68      132      187      188 </v>
   <v type="int" >        2       68      131      132      187 </v>
   <v type="int" >        2       69      124      125      188 </v>
   <v type="int" >        2       68       69      124      188 </v>
   <v type="int" >        2       68       69      132      188 </v>
   <v type="int" >        2       69      125      188      189 </v>
   <v type="int" >        2       69      133      188      189 </v>
   <v type="int" >        2       69      132      133      188 </v>
   <v type="int" >        2       70      125      126      189 </v>
   <v type="int" >        2       69       70      125      189 </v>
   <v type="int" >        2       69       70      133      189 </v>
   <v type="int" >        2       70      126      189      190 </v>
   <v type="int" >        2       70      134      189      190 </v>
   <v type="int" >        2       70      133      134      189 </v>
   <v type="int" >        2       71      126      127      190 </v>
   <v type="int" >        2       70       71      126      190 </v>
   <v type="int" >        2       70       71      134      190 </v>
   <v type="int" >        2       71      127      190      191 </v>
   <v type="int" >        2       71      135      190      191 </v>
   <v type="int" >        2       71      134      135      190 </v>
   <v type="int" >        2       72      127      128      191 </v>
   <v type="int" >        2       71       72      127      191 </v>
   <v type="int" >        2       71       72      135      191 </v>
   <v type="int" >        2       72      128      191      192 </v>
   <v type="int" >        2       72      136      191      192 </v>
   <v type="int" >        2       72      135      136      191 </v>
   <v type="int" >        2       65      121      128      192 </v>
   <v type="int" >        2       65       72      128      192 </v>
   <v type="int" >        2       65       72      136      192 </v>
   <v type="int" >        2       65      121      185      192 </v>
   <v type="int" >        2       65      129      185      192 </v>
   <v type="int" >        2       65      129      136      192 </v>
   <v type="int" >        2      129      130      138      193 </v>
   <v type="int" >        2      129      137      138      193 </v>
   <v type="int" >        2      137      138      193      201 </v>
   <v type="int" >        2      130      138      193      194 </v>
   <v type="int" >        2      138      193      194      202 </v>
   <v type="int" >        2      138      193      201      202 </v>
   <v type="int" >        2      130      131      139      194 </v>
   <v type="int" >        2      130      138      139      194 </v>
   <v type="int" >        2      138      139      194      202 </v>
   <v type="int" >        2      131      139      194      195 </v>
   <v type="int" >        2      139      194      195      203 </v>
   <v type="int" >        2      139      194      202      203 </v>
   <v type="int" >        2      131      132      140      195 </v>
[...]
       <r>    17.8295     0.3272    13.6995 </r>
       <r>    17.9341     0.3278    13.7337 </r>
       <r>    18.0387     0.3422    13.7688 </r>
       <r>    18.1434     0.3538    13.8052 </r>
       <r>    18.2480     0.3619    13.8426 </r>
       <r>    18.3527     0.3682    13.8809 </r>
       <r>    18.4573     0.3706    13.9196 </r>
       <r>    18.5620     0.3558    13.9587 </r>
       <r>    18.6666     0.3603    13.9962 </r>
       <r>    18.7713     0.3657    14.0342 </r>
       <r>    18.8759     0.4013    14.0734 </r>
       <r>    18.9806     0.4689    14.1190 </r>
       <r>    19.0852     0.3467    14.1580 </r>
       <r>    19.1898     0.3097    14.1923 </r>
       <r>    19.2945     0.2878    14.2231 </r>
       <r>    19.3991     0.2785    14.2527 </r>
       <r>    19.5038     0.2700    14.2814 </r>
       <r>    19.6084     0.2624    14.3092 </r>
       <r>    19.7131     0.2560    14.3363 </r>
       <r>    19.8177     0.2514    14.3628 </r>
       <r>    19.9224     0.2486    14.3890 </r>
       <r>    20.0270     0.2471    14.4149 </r>
       <r>    20.1317     0.2484    14.4408 </r>
       <r>    20.2363     0.2465    14.4731 </r>
       <r>    20.3409     0.2648    14.4998 </r>
       <r>    20.4456     0.2835    14.5285 </r>
       <r>    20.5502     0.2674    14.5584 </r>
       <r>    20.6549     0.2739    14.5867 </r>
       <r>    20.7595     0.2609    14.6200 </r>
       <r>    20.8642     0.2700    14.6477 </r>
       <r>    20.9688     0.3233    14.6766 </r>
       <r>    21.0735     0.3280    14.7106 </r>
       <r>    21.1781     0.3332    14.7452 </r>
       <r>    21.2828     0.3391    14.7804 </r>
       <r>    21.3874     0.3461    14.8162 </r>
       <r>    21.4920     0.3533    14.8528 </r>
       <r>    21.5967     0.3610    14.8902 </r>
       <r>    21.7013     0.3693    14.9284 </r>
       <r>    21.8060     0.3473    14.9669 </r>
       <r>    21.9106     0.3054    14.9997 </r>
       <r>    22.0153     0.3066    15.0317 </r>
       <r>    22.1199     0.3072    15.0638 </r>
       <r>    22.2246     0.3073    15.0960 </r>
       <r>    22.3292     0.3691    15.1354 </r>
       <r>    22.4339     0.3903    15.1809 </r>
       <r>    22.5385     0.4334    15.2238 </r>
       <r>    22.6431     0.3797    15.2649 </r>
       <r>    22.7478     0.3580    15.3032 </r>
       <r>    22.8524     0.3506    15.3403 </r>
       <r>    22.9571     0.3439    15.3766 </r>
       <r>    23.0617     0.3156    15.4165 </r>
       <r>    23.1664     0.3131    15.4494 </r>
       <r>    23.2710     0.3688    15.5217 </r>
       <r>    23.3757     0.3492    15.5593 </r>
       <r>    23.4803     0.3355    15.5948 </r>
       <r>    23.5850     0.3375    15.6300 </r>
       <r>    23.6896     0.3392    15.6655 </r>
       <r>    23.7942     0.4611    15.7152 </r>
       <r>    23.8989     0.2876    15.7633 </r>
       <r>    24.0035     0.2755    15.7928 </r>
       <r>    24.1082     0.4227    15.8284 </r>
       <r>    24.2128     0.3946    15.8712 </r>
       <r>    24.3175     0.3656    15.9110 </r>
       <r>    24.4221     0.3357    15.9477 </r>
       <r>    24.5268     0.3038    15.9812 </r>
       <r>    24.6314     0.0000    16.0000 </r>
       <r>    24.7361     0.0000    16.0000 </r>
       <r>    24.8407     0.0000    16.0000 </r>
       <r>    24.9453     0.0000    16.0000 </r>
       <r>    25.0500     0.0000    16.0000 </r>
       <r>    25.1546     0.0000    16.0000 </r>
       <r>    25.2593     0.0000    16.0000 </r>
       <r>    25.3639     0.0000    16.0000 </r>
       <r>    25.4686     0.0000    16.0000 </r>
       <r>    25.5732     0.0000    16.0000 </r>
       <r>    25.6779     0.0000    16.0000 </r>
       <r>    25.7825     0.0000    16.0000 </r>
       <r>    25.8872     0.0000    16.0000 </r>
       <r>    25.9918     0.0000    16.0000 </r>
       <r>    26.0965     0.0000    16.0000 </r>
       <r>    26.2011     0.0000    16.0000 </r>
       <r>    26.3057     0.0000    16.0000 </r>
       <r>    26.4104     0.0000    16.0000 </r>
       <r>    26.5150     0.0000    16.0000 </r>
       <r>    26.6197     0.0000    16.0000 </r>
       <r>    26.7243     0.0000    16.0000 </r>
       <r>    26.8290     0.0000    16.0000 </r>
       <r>    26.9336     0.0000    16.0000 </r>
       <r>    27.0383     0.0000    16.0000 </r>
      </set>
      <set comment="spin 2">
       <r>    -4.3554     0.0000     0.0000 </r>
       <r>    -4.2508     0.0000     0.0000 </r>
       <r>    -4.1461     0.0000     0.0000 </r>
       <r>    -4.0415     0.0000     0.0000 </r>
       <r>    -3.9368     0.0000     0.0000 </r>
       <r>    -3.8322     0.0000     0.0000 </r>
       <r>    -3.7275     0.0000     0.0000 </r>
       <r>    -3.6229     0.0000     0.0000 </r>
       <r>    -3.5182     0.0000     0.0000 </r>
       <r>    -3.4136     0.0000     0.0000 </r>
       <r>    -3.3089     0.0000     0.0000 </r>
       <r>    -3.2043     0.0000     0.0000 </r>
       <r>    -3.0997     0.0000     0.0000 </r>
       <r>    -2.9950     0.0000     0.0000 </r>
       <r>    -2.8904     0.0000     0.0000 </r>
       <r>    -2.7857     0.0000     0.0000 </r>
       <r>    -2.6811     0.0000     0.0000 </r>
       <r>    -2.5764     0.0000     0.0000 </r>
       <r>    -2.4718     0.0000     0.0000 </r>
       <r>    -2.3671     0.0000     0.0000 </r>
       <r>    -2.2625     0.0000     0.0000 </r>
       <r>    -2.1578     0.0215     0.0029 </r>
       <r>    -2.0532     0.0284     0.0055 </r>
       <r>    -1.9486     0.0360     0.0089 </r>
       <r>    -1.8439     0.0444     0.0131 </r>
       <r>    -1.7393     0.0534     0.0182 </r>
       <r>    -1.6346     0.0632     0.0243 </r>
       <r>    -1.5300     0.0637     0.0310 </r>
       <r>    -1.4253     0.0684     0.0379 </r>
       <r>    -1.3207     0.0728     0.0453 </r>
       <r>    -1.2160     0.0769     0.0532 </r>
       <r>    -1.1114     0.0807     0.0614 </r>
       <r>    -1.0067     0.0842     0.0701 </r>
       <r>    -0.9021     0.0888     0.0791 </r>
       <r>    -0.7975     0.0944     0.0887 </r>
       <r>    -0.6928     0.1003     0.0989 </r>
       <r>    -0.5882     0.1067     0.1097 </r>
       <r>    -0.4835     0.1134     0.1212 </r>
       <r>    -0.3789     0.1178     0.1334 </r>
       <r>    -0.2742     0.1227     0.1460 </r>
       <r>    -0.1696     0.1274     0.1591 </r>
       <r>    -0.0649     0.1318     0.1726 </r>
       <r>     0.0397     0.1359     0.1866 </r>
       <r>     0.1444     0.1433     0.2011 </r>
       <r>     0.2490     0.1500     0.2165 </r>
       <r>     0.3536     0.1570     0.2325 </r>
       <r>     0.4583     0.1643     0.2493 </r>
       <r>     0.5629     0.1720     0.2669 </r>
       <r>     0.6676     0.1799     0.2853 </r>
       <r>     0.7722     0.1877     0.3046 </r>
       <r>     0.8769     0.1958     0.3246 </r>
       <r>     0.9815     0.2040     0.3456 </r>
       <r>     1.0862     0.2167     0.3675 </r>
       <r>     1.1908     0.2956     0.4024 </r>
       <r>     1.2955     0.3162     0.4344 </r>
       <r>     1.4001     0.3355     0.4685 </r>
       <r>     1.5048     0.3343     0.5038 </r>
       <r>     1.6094     0.3413     0.5391 </r>
       <r>     1.7140     0.3453     0.5751 </r>
       <r>     1.8187     0.3464     0.6113 </r>
       <r>     1.9233     0.4103     0.6500 </r>
       <r>     2.0280     0.4111     0.6931 </r>
       <r>     2.1326     0.4010     0.7357 </r>
       <r>     2.2373     0.3068     0.7755 </r>
       <r>     2.3419     0.2790     0.8062 </r>
       <r>     2.4466     0.4606     0.8567 </r>
       <r>     2.5512     0.7971     0.9320 </r>
       <r>     2.6559     0.8817     1.0459 </r>
       <r>     2.7605     0.9186     1.1403 </r>
       <r>     2.8651     0.9160     1.2361 </r>
       <r>     2.9698     1.2399     1.3497 </r>
       <r>     3.0744     1.4012     1.4695 </r>
       <r>     3.1791     1.4422     1.6213 </r>
       <r>     3.2837     1.7044     1.7788 </r>
       <r>     3.3884     1.2522     1.8954 </r>
       <r>     3.4930     0.8259     1.9992 </r>
       <r>     3.5977     0.6365     2.0780 </r>
       <r>     3.7023     0.4243     2.1282 </r>
       <r>     3.8070     0.3954     2.1713 </r>
       <r>     3.9116     1.5832     2.2150 </r>
       <r>     4.0162     1.8980     2.3763 </r>
       <r>     4.1209     2.3225     2.5925 </r>
       <r>     4.2255     2.9906     2.8927 </r>
       <r>     4.3302     2.8091     3.1960 </r>
       <r>     4.4348     2.1900     3.4983 </r>
       <r>     4.5395     1.9987     3.7267 </r>
       <r>     4.6441     1.9399     3.9246 </r>
       <r>     4.7488     2.1529     4.1407 </r>
       <r>     4.8534     2.2152     4.3676 </r>
       <r>     4.9581     2.3627     4.6064 </r>
       <r>     5.0627     2.3911     4.9278 </r>
       <r>     5.1673     3.0240     5.2024 </r>
       <r>     5.2720     1.7785     5.4184 </r>
       <r>     5.3766     0.8345     5.5889 </r>
       <r>     5.4813     0.5679     5.6638 </r>
       <r>     5.5859     0.5382     5.7214 </r>
       <r>     5.6906     0.5343     5.7774 </r>
       <r>     5.7952     0.5183     5.8385 </r>
       <r>     5.8999     0.4015     5.8998 </r>
       <r>     6.0045     0.3438     5.9389 </r>
       <r>     6.1092     0.4102     5.9873 </r>
       <r>     6.2138     0.4924     6.0400 </r>
       <r>     6.3184     0.5152     6.0874 </r>
       <r>     6.4231     0.7444     6.1536 </r>
       <r>     6.5277     1.0038     6.2435 </r>
       <r>     6.6324     1.4511     6.3713 </r>
       <r>     6.7370     1.8522     6.5313 </r>
       <r>     6.8417     1.8749     6.7288 </r>
       <r>     6.9463     2.2701     6.9486 </r>
       <r>     7.0510     2.5675     7.2012 </r>
       <r>     7.1556     3.0225     7.5112 </r>
       <r>     7.2603     2.8468     7.8294 </r>
       <r>     7.3649     2.3111     8.1054 </r>
       <r>     7.4695     2.1368     8.3340 </r>
       <r>     7.5742     3.2674     8.6133 </r>
       <r>     7.6788     6.5726     9.0749 </r>
       <r>     7.7835     1.2464     9.7689 </r>
       <r>     7.8881     1.4593     9.9142 </r>
       <r>     7.9928     1.6765    10.0774 </r>
       <r>     8.0974     2.6218    10.3855 </r>
       <r>     8.2021     0.8468    10.5336 </r>
       <r>     8.3067     0.4981    10.5961 </r>
       <r>     8.4114     0.3835    10.6416 </r>
       <r>     8.5160     0.2785    10.6843 </r>
       <r>     8.6206     0.2494    10.7119 </r>
       <r>     8.7253     0.2231    10.7366 </r>
       <r>     8.8299     0.1999    10.7587 </r>
       <r>     8.9346     0.3869    10.8010 </r>
       <r>     9.0392     0.4379    10.8441 </r>
       <r>     9.1439     0.5277    10.8935 </r>
       <r>     9.2485     0.6050    10.9527 </r>
       <r>     9.3532     0.3759    10.9972 </r>
       <r>     9.4578     0.3683    11.0362 </r>
       <r>     9.5625     0.3599    11.0743 </r>
       <r>     9.6671     0.3507    11.1114 </r>
       <r>     9.7717     0.3400    11.1476 </r>
       <r>     9.8764     0.3355    11.1829 </r>
       <r>     9.9810     0.3311    11.2178 </r>
       <r>    10.0857     0.3269    11.2522 </r>
       <r>    10.1903     0.3237    11.2862 </r>
       <r>    10.2950     0.3215    11.3200 </r>
       <r>    10.3996     0.3012    11.3533 </r>
       <r>    10.5043     0.2966    11.3846 </r>
       <r>    10.6089     0.2917    11.4154 </r>
       <r>    10.7136     0.2831    11.4453 </r>
       <r>    10.8182     0.2765    11.4746 </r>
       <r>    10.9228     0.2773    11.5034 </r>
       <r>    11.0275     0.2863    11.5329 </r>
       <r>    11.1321     0.2561    11.5630 </r>
       <r>    11.2368     0.2478    11.5894 </r>
       <r>    11.3414     0.2371    11.6147 </r>
       <r>    11.4461     0.2300    11.6391 </r>
       <r>    11.5507     0.2232    11.6629 </r>
       <r>    11.6554     0.2166    11.6859 </r>
       <r>    11.7600     0.2154    11.7085 </r>
       <r>    11.8647     0.2121    11.7309 </r>
       <r>    11.9693     0.2362    11.7547 </r>
       <r>    12.0739     0.1854    11.7762 </r>
       <r>    12.1786     0.1739    11.7950 </r>
       <r>    12.2832     0.1470    11.8119 </r>
       <r>    12.3879     0.1382    11.8268 </r>
       <r>    12.4925     0.1298    11.8409 </r>
       <r>    12.5972     0.1217    11.8540 </r>
       <r>    12.7018     0.1140    11.8663 </r>
       <r>    12.8065     0.1066    11.8779 </r>
       <r>    12.9111     0.0928    11.8901 </r>
       <r>    13.0158     0.0872    11.8995 </r>
       <r>    13.1204     0.0818    11.9084 </r>
       <r>    13.2251     0.0768    11.9167 </r>
       <r>    13.3297     0.1366    11.9309 </r>
       <r>    13.4343     0.0702    11.9423 </r>
       <r>    13.5390     0.0622    11.9492 </r>
       <r>    13.6436     0.0551    11.9553 </r>
       <r>    13.7483     0.0489    11.9608 </r>
       <r>    13.8529     0.0446    11.9656 </r>
       <r>    13.9576     0.0423    11.9702 </r>
       <r>    14.0622     0.0422    11.9746 </r>
       <r>    14.1669     0.0442    11.9791 </r>
       <r>    14.2715     0.0482    11.9839 </r>
       <r>    14.3762     0.0863    11.9935 </r>
       <r>    14.4808     0.1128    12.0039 </r>
       <r>    14.5854     0.3440    12.0373 </r>
       <r>    14.6901     0.5011    12.0824 </r>
       <r>    14.7947     0.3675    12.1203 </r>
       <r>    14.8994     0.3904    12.1600 </r>
       <r>    15.0040     0.4113    12.2020 </r>
       <r>    15.1087     0.4284    12.2460 </r>
       <r>    15.2133     0.4421    12.2915 </r>
       <r>    15.3180     0.5530    12.3451 </r>
       <r>    15.4226     0.5840    12.4046 </r>
       <r>    15.5273     0.4806    12.4598 </r>
       <r>    15.6319     0.4431    12.5081 </r>
       <r>    15.7365     0.3631    12.5526 </r>
       <r>    15.8412     0.3775    12.5954 </r>
       <r>    15.9458     0.4299    12.6375 </r>
       <r>    16.0505     0.4381    12.6829 </r>
       <r>    16.1551     0.4003    12.7297 </r>
       <r>    16.2598     0.4068    12.7720 </r>
       <r>    16.3644     0.3764    12.8146 </r>
       <r>    16.4691     0.3746    12.8539 </r>
       <r>    16.5737     0.3742    12.8931 </r>
       <r>    16.6784     0.3750    12.9323 </r>
       <r>    16.7830     0.3969    12.9771 </r>
       <r>    16.8876     0.4046    13.0190 </r>
       <r>    16.9923     0.3962    13.0610 </r>
       <r>    17.0969     0.4140    13.1034 </r>
       <r>    17.2016     0.4365    13.1479 </r>
       <r>    17.3062     0.4601    13.1948 </r>
       <r>    17.4109     0.4865    13.2444 </r>
       <r>    17.5155     0.5088    13.2965 </r>
       <r>    17.6202     0.4356    13.3454 </r>
       <r>    17.7248     0.4733    13.3900 </r>
       <r>    17.8295     0.4063    13.4374 </r>
       <r>    17.9341     0.8366    13.4776 </r>
       <r>    18.0387     0.3530    13.5204 </r>
       <r>    18.1434     0.3505    13.5572 </r>
       <r>    18.2480     0.3481    13.5938 </r>
       <r>    18.3527     0.3459    13.6301 </r>
       <r>    18.4573     0.3438    13.6662 </r>
       <r>    18.5620     0.3419    13.7020 </r>
       <r>    18.6666     0.3460    13.7378 </r>
       <r>    18.7713     0.3625    13.7749 </r>
       <r>    18.8759     0.3745    13.8135 </r>
       <r>    18.9806     0.3834    13.8532 </r>
       <r>    19.0852     0.3882    13.8936 </r>
       <r>    19.1898     0.3679    13.9346 </r>
       <r>    19.2945     0.3698    13.9732 </r>
       <r>    19.3991     0.3725    14.0120 </r>
       <r>    19.5038     0.3761    14.0512 </r>
       <r>    19.6084     0.7995    14.0949 </r>
       <r>    19.7131     0.3685    14.1367 </r>
       <r>    19.8177     0.3422    14.1738 </r>
       <r>    19.9224     0.3193    14.2084 </r>
       <r>    20.0270     0.2904    14.2403 </r>
       <r>    20.1317     0.2897    14.2712 </r>
       <r>    20.2363     0.2797    14.3010 </r>
       <r>    20.3409     0.2715    14.3298 </r>
       <r>    20.4456     0.2667    14.3580 </r>
       <r>    20.5502     0.2643    14.3857 </r>
       <r>    20.6549     0.2628    14.4133 </r>
       <r>    20.7595     0.2628    14.4408 </r>
       <r>    20.8642     0.2802    14.4691 </r>
       <r>    20.9688     0.2886    14.5052 </r>
       <r>    21.0735     0.3123    14.5366 </r>
       <r>    21.1781     0.2847    14.5670 </r>
       <r>    21.2828     0.2912    14.5971 </r>
       <r>    21.3874     0.2768    14.6320 </r>
       <r>    21.4920     0.2862    14.6615 </r>
       <r>    21.5967     0.3423    14.6925 </r>
       <r>    21.7013     0.3468    14.7285 </r>
       <r>    21.8060     0.3527    14.7651 </r>
       <r>    21.9106     0.3586    14.8023 </r>
       <r>    22.0153     0.3651    14.8402 </r>
       <r>    22.1199     0.3721    14.8788 </r>
       <r>    22.2246     0.3798    14.9181 </r>
       <r>    22.3292     0.3856    14.9583 </r>
       <r>    22.4339     0.3164    14.9950 </r>
       <r>    22.5385     0.3151    15.0280 </r>
       <r>    22.6431     0.3136    15.0609 </r>
       <r>    22.7478     0.3119    15.0937 </r>
       <r>    22.8524     0.3100    15.1262 </r>
       <r>    22.9571     0.3145    15.1587 </r>
       <r>    23.0617     0.3137    15.1974 </r>
       <r>    23.1664     0.3915    15.2385 </r>
       <r>    23.2710     0.4252    15.2811 </r>
       <r>    23.3757     0.3528    15.3281 </r>
       <r>    23.4803     0.3515    15.3649 </r>
       <r>    23.5850     0.3504    15.4016 </r>
       <r>    23.6896     0.3496    15.4383 </r>
       <r>    23.7942     0.7480    15.5108 </r>
       <r>    23.8989     0.4429    15.5674 </r>
       <r>    24.0035     1.3721    15.6197 </r>
       <r>    24.1082     0.3175    15.6843 </r>
       <r>    24.2128     0.3019    15.7167 </r>
       <r>    24.3175     0.2880    15.7475 </r>
       <r>    24.4221     0.2759    15.7770 </r>
       <r>    24.5268     0.2656    15.8053 </r>
       <r>    24.6314     0.3441    15.8332 </r>
       <r>    24.7361     0.4806    15.8818 </r>
       <r>    24.8407     0.4649    15.9313 </r>
       <r>    24.9453     0.4137    15.9785 </r>
       <r>    25.0500     0.0000    16.0000 </r>
       <r>    25.1546     0.0000    16.0000 </r>
       <r>    25.2593     0.0000    16.0000 </r>
       <r>    25.3639     0.0000    16.0000 </r>
       <r>    25.4686     0.0000    16.0000 </r>
       <r>    25.5732     0.0000    16.0000 </r>
       <r>    25.6779     0.0000    16.0000 </r>
       <r>    25.7825     0.0000    16.0000 </r>
       <r>    25.8872     0.0000    16.0000 </r>
       <r>    25.9918     0.0000    16.0000 </r>
       <r>    26.0965     0.0000    16.0000 </r>
       <r>    26.2011     0.0000    16.0000 </r>
       <r>    26.3057     0.0000    16.0000 </r>
       <r>    26.4104     0.0000    16.0000 </r>
       <r>    26.5150     0.0000    16.0000 </r>
       <r>    26.6197     0.0000    16.0000 </r>
       <r>    26.7243     0.0000    16.0000 </r>
       <r>    26.8290     0.0000    16.0000 </r>
       <r>    26.9336     0.0000    16.0000 </r>
       <r>    27.0383     0.0000    16.0000 </r>
      </set>
     </set>
    </array>
   </total>
  </dos>
 </calculation>
 <structure name="finalpos" >
  <crystal>
   <varray name="basis" >
    <v>       2.83177559       0.00000000       0.00000000 </v>
    <v>       0.00000000       2.83177559       0.00000000 </v>
    <v>       0.00000000       0.00000000       2.83177559 </v>
   </varray>
   <i name="volume">     22.70787529 </i>
   <varray name="rec_basis" >
    <v>       0.35313533       0.00000000       0.00000000 </v>
    <v>       0.00000000       0.35313533       0.00000000 </v>
    <v>       0.00000000       0.00000000       0.35313533 </v>
   </varray>
  </crystal>
  <varray name="positions" >
   <v>       0.50000000       0.50000000       0.50000000 </v>
   <v>       0.00000000       0.00000000       0.00000000 </v>
  </varray>
 </structure>
</modeling>
