================================================================================
| EXCITING BORON started                                                       =
| version hash id:                                                             =
| MPI version using     16 processor(s)                                        =
|                                                                              =
| Date (DD-MM-YYYY) : 09-08-2015                                               =
| Time (hh:mm:ss)   : 23:22:40                                                 =
|                                                                              =
| All units are atomic (Hartree, Bohr, etc.)                                   =
================================================================================
 
********************************************************************************
| Structural optimisation starting from atomic densities                       *
********************************************************************************
 
++++++++++++++++++++++++++++++++++++++++++++++++++++++++++++++++++++++++++++++++
| Starting initialization                                                      +
++++++++++++++++++++++++++++++++++++++++++++++++++++++++++++++++++++++++++++++++
 
 Lattice vectors (cartesian) :
      2.3270000000      4.0271147665     -0.1647229709
     -2.3270000000      4.0271147665     -0.1647229709
      0.0000000000     -0.2687606586      6.3018470167
 
 Reciprocal lattice vectors (cartesian) :
      1.3500613036      0.7814732774      0.0333282087
     -1.3500613036      0.7814732774      0.0333282087
      0.0000000000      0.0408536099      0.9987810135
 
 Unit cell volume                           :     117.9043900327
 Brillouin zone volume                      :       2.1038250855
 
 Species :    1 (C)
     parameters loaded from                 :    C.xml
     name                                   :    carbon
     nuclear charge                         :      -6.00000000
     electronic charge                      :       6.00000000
     atomic mass                            :   21894.16673000
     muffin-tin radius                      :       1.20000000
     # of radial points in muffin-tin       :     250
 
     atomic positions (lattice) :
       1 :   0.00000000  0.00000000  0.00000000
       2 :   0.33333333  0.33333333  0.00000000
 
 Total number of atoms per unit cell        :       2
 
 Spin treatment                             :    spin-unpolarised
 
 Number of Bravais lattice symmetries       :       4
 Number of crystal symmetries               :       4
 
 k-point grid                               :      34   34   24
 Total number of k-points                   :    7159
 k-point set is reduced with crystal symmetries
 
 R^MT_min * |G+k|_max (rgkmax)              :       8.00000000
 Species with R^MT_min                      :       1 (C)
 Maximum |G+k| for APW functions            :       6.66666667
 Maximum |G| for potential and density      :      20.00000000
 
 G-vector grid sizes                        :      30    30    45
 Total number of G-vectors                  :   15929
 
 Maximum angular momentum used for
     APW functions                          :       8
     computing H and O matrix elements      :       8
     potential and density                  :       8
     inner part of muffin-tin               :       2
 
 Total nuclear charge                       :     -12.00000000
 Total electronic charge                    :      12.00000000
 Total core charge                          :       4.00000000
 Total valence charge                       :       8.00000000
 
 Number of empty states                     :       5
 Total number of valence states             :      10
 
 Maximum Hamiltonian size                   :     617
 Maximum number of plane-waves              :     609
 Total number of local-orbitals             :       8
 
 Exchange-correlation type                  :      20
     Perdew-Burke-Ernzerhof, Phys. Rev. Lett. 77, 3865 (1996)
     Generalised gradient approximation (GGA)
 
 Smearing scheme                            :    Gaussian
 Smearing width                             :       0.01000000
 
 Using multisecant Broyden potential mixing
 
++++++++++++++++++++++++++++++++++++++++++++++++++++++++++++++++++++++++++++++++
| Ending initialization                                                        +
++++++++++++++++++++++++++++++++++++++++++++++++++++++++++++++++++++++++++++++++
 
********************************************************************************
| Groundstate module started                                                   *
********************************************************************************
 Output level for this task is set to normal
 
++++++++++++++++++++++++++++++++++++++++++++++++++++++++++++++++++++++++++++++++
| Self-consistent loop started                                                 +
++++++++++++++++++++++++++++++++++++++++++++++++++++++++++++++++++++++++++++++++
 Density and potential initialised from atomic data
 
 
++++++++++++++++++++++++++++++++++++++++++++++++++++++++++++++++++++++++++++++++
| SCF iteration number :    1                                                  +
++++++++++++++++++++++++++++++++++++++++++++++++++++++++++++++++++++++++++++++++
 Total energy                               :       -78.27430239
 _______________________________________________________________
 Fermi energy                               :         0.18189879
 Kinetic energy                             :        74.58065183
 Coulomb energy                             :      -141.93402422
 Exchange energy                            :       -10.50132458
 Correlation energy                         :        -0.41960542
 
 DOS at Fermi energy (states/Ha/cell)       :         1.15666908
 
 Electron charges :
     core                                   :         4.00000000
     core leakage                           :         0.00128284
     valence                                :         8.00000000
     interstitial                           :         4.53683940
     charge in muffin-tin spheres :
                  atom     1     C          :         3.73158030
                  atom     2     C          :         3.73158030
     total charge in muffin-tins            :         7.46316060
     total charge                           :        12.00000000
 
 Wall time (seconds)                        :       159.46
 
++++++++++++++++++++++++++++++++++++++++++++++++++++++++++++++++++++++++++++++++
| SCF iteration number :    2                                                  +
++++++++++++++++++++++++++++++++++++++++++++++++++++++++++++++++++++++++++++++++
 Total energy                               :       -77.51647960
 _______________________________________________________________
 Fermi energy                               :         0.20246680
 Kinetic energy                             :        75.08741189
 Coulomb energy                             :      -141.71939612
 Exchange energy                            :       -10.46386169
 Correlation energy                         :        -0.42063368
 
 DOS at Fermi energy (states/Ha/cell)       :         1.24589094
 
 Electron charges :
     core                                   :         4.00000000
     core leakage                           :         0.00129516
     valence                                :         8.00000000
     interstitial                           :         4.59963919
     charge in muffin-tin spheres :
                  atom     1     C          :         3.70018040
                  atom     2     C          :         3.70018040
     total charge in muffin-tins            :         7.40036081
     total charge                           :        12.00000000
 
 Wall time (seconds)                        :       316.88
 
 RMS change in effective potential (target) :   1.60848      ( 0.100000E-05)
 Absolute change in total energy   (target) :  0.757823      ( 0.100000E-06)
 Charge distance                   (target) :  0.127635E-01  ( 0.100000E-04)
 Abs. change in max-nonIBS-force   (target) :  0.553976E-04  ( 0.250000E-05)
 
++++++++++++++++++++++++++++++++++++++++++++++++++++++++++++++++++++++++++++++++
| SCF iteration number :    3                                                  +
++++++++++++++++++++++++++++++++++++++++++++++++++++++++++++++++++++++++++++++++
 Total energy                               :       -76.97986165
 _______________________________________________________________
 Fermi energy                               :         0.21650798
 Kinetic energy                             :        75.44332210
 Coulomb energy                             :      -141.56497852
 Exchange energy                            :       -10.43676915
 Correlation energy                         :        -0.42143608
 
 DOS at Fermi energy (states/Ha/cell)       :         1.32092197
 
 Electron charges :
     core                                   :         4.00000000
     core leakage                           :         0.00130312
     valence                                :         8.00000000
     interstitial                           :         4.64541474
     charge in muffin-tin spheres :
                  atom     1     C          :         3.67729263
                  atom     2     C          :         3.67729263
     total charge in muffin-tins            :         7.35458526
     total charge                           :        12.00000000
 
 Wall time (seconds)                        :       476.63
 
 RMS change in effective potential (target) :   1.18704      ( 0.100000E-05)
 Absolute change in total energy   (target) :  0.536618      ( 0.100000E-06)
 Charge distance                   (target) :  0.940967E-02  ( 0.100000E-04)
 Abs. change in max-nonIBS-force   (target) :  0.172774E-04  ( 0.250000E-05)
 
++++++++++++++++++++++++++++++++++++++++++++++++++++++++++++++++++++++++++++++++
| SCF iteration number :    4                                                  +
++++++++++++++++++++++++++++++++++++++++++++++++++++++++++++++++++++++++++++++++
 Total energy                               :       -76.73223946
 _______________________________________________________________
 Fermi energy                               :         0.22234407
 Kinetic energy                             :        75.62167185
 Coulomb energy                             :      -141.51073613
 Exchange energy                            :       -10.42119523
 Correlation energy                         :        -0.42197995
 
 DOS at Fermi energy (states/Ha/cell)       :         1.37652366
 
 Electron charges :
     core                                   :         4.00000000
     core leakage                           :         0.00129563
     valence                                :         8.00000000
     interstitial                           :         4.67619047
     charge in muffin-tin spheres :
                  atom     1     C          :         3.66190476
                  atom     2     C          :         3.66190476
     total charge in muffin-tins            :         7.32380953
     total charge                           :        12.00000000
 
 Wall time (seconds)                        :       636.40
 
 RMS change in effective potential (target) :  0.664304E-01  ( 0.100000E-05)
 Absolute change in total energy   (target) :  0.247622      ( 0.100000E-06)
 Charge distance                   (target) :  0.685718E-02  ( 0.100000E-04)
 Abs. change in max-nonIBS-force   (target) :  0.253787E-04  ( 0.250000E-05)
 
++++++++++++++++++++++++++++++++++++++++++++++++++++++++++++++++++++++++++++++++
| SCF iteration number :    5                                                  +
++++++++++++++++++++++++++++++++++++++++++++++++++++++++++++++++++++++++++++++++
 Total energy                               :       -75.94895134
 _______________________________________________________________
 Fermi energy                               :         0.24192108
 Kinetic energy                             :        76.11826978
 Coulomb energy                             :      -141.26126902
 Exchange energy                            :       -10.38275569
 Correlation energy                         :        -0.42319641
 
 DOS at Fermi energy (states/Ha/cell)       :         1.49853282
 
 Electron charges :
     core                                   :         4.00000000
     core leakage                           :         0.00131516
     valence                                :         8.00000000
     interstitial                           :         4.73842568
     charge in muffin-tin spheres :
                  atom     1     C          :         3.63078716
                  atom     2     C          :         3.63078716
     total charge in muffin-tins            :         7.26157432
     total charge                           :        12.00000000
 
 Wall time (seconds)                        :       797.10
 
 RMS change in effective potential (target) :  0.329898E-01  ( 0.100000E-05)
 Absolute change in total energy   (target) :  0.783288      ( 0.100000E-06)
 Charge distance                   (target) :  0.126383E-01  ( 0.100000E-04)
 Abs. change in max-nonIBS-force   (target) :  0.202733E-04  ( 0.250000E-05)
 
++++++++++++++++++++++++++++++++++++++++++++++++++++++++++++++++++++++++++++++++
| SCF iteration number :    6                                                  +
++++++++++++++++++++++++++++++++++++++++++++++++++++++++++++++++++++++++++++++++
 Total energy                               :       -76.20452151
 _______________________________________________________________
 Fermi energy                               :         0.23568951
 Kinetic energy                             :        75.95680125
 Coulomb energy                             :      -141.34309129
 Exchange energy                            :       -10.39544170
 Correlation energy                         :        -0.42278976
 
 DOS at Fermi energy (states/Ha/cell)       :         1.45584604
 
 Electron charges :
     core                                   :         4.00000000
     core leakage                           :         0.00130899
     valence                                :         8.00000000
     interstitial                           :         4.71783888
     charge in muffin-tin spheres :
                  atom     1     C          :         3.64108056
                  atom     2     C          :         3.64108056
     total charge in muffin-tins            :         7.28216112
     total charge                           :        12.00000000
 
 Wall time (seconds)                        :       957.63
 
 RMS change in effective potential (target) :  0.666011E-03  ( 0.100000E-05)
 Absolute change in total energy   (target) :  0.255570      ( 0.100000E-06)
 Charge distance                   (target) :  0.421738E-02  ( 0.100000E-04)
 Abs. change in max-nonIBS-force   (target) :  0.136690E-04  ( 0.250000E-05)
 
++++++++++++++++++++++++++++++++++++++++++++++++++++++++++++++++++++++++++++++++
| SCF iteration number :    7                                                  +
++++++++++++++++++++++++++++++++++++++++++++++++++++++++++++++++++++++++++++++++
 Total energy                               :       -76.20564727
 _______________________________________________________________
 Fermi energy                               :         0.23565401
 Kinetic energy                             :        75.95634399
 Coulomb energy                             :      -141.34371569
 Exchange energy                            :       -10.39548868
 Correlation energy                         :        -0.42278688
 
 DOS at Fermi energy (states/Ha/cell)       :         1.45595248
 
 Electron charges :
     core                                   :         4.00000000
     core leakage                           :         0.00130887
     valence                                :         8.00000000
     interstitial                           :         4.71777733
     charge in muffin-tin spheres :
                  atom     1     C          :         3.64111133
                  atom     2     C          :         3.64111133
     total charge in muffin-tins            :         7.28222267
     total charge                           :        12.00000000
 
 Wall time (seconds)                        :      1118.35
 
 RMS change in effective potential (target) :  0.155677E-03  ( 0.100000E-05)
 Absolute change in total energy   (target) :  0.112576E-02  ( 0.100000E-06)
 Charge distance                   (target) :  0.187239E-04  ( 0.100000E-04)
 Abs. change in max-nonIBS-force   (target) :  0.119616E-05  ( 0.250000E-05)
 
++++++++++++++++++++++++++++++++++++++++++++++++++++++++++++++++++++++++++++++++
| SCF iteration number :    8                                                  +
++++++++++++++++++++++++++++++++++++++++++++++++++++++++++++++++++++++++++++++++
 Total energy                               :       -76.20629414
 _______________________________________________________________
 Fermi energy                               :         0.23563788
 Kinetic energy                             :        75.95586215
 Coulomb energy                             :      -141.34385098
 Exchange energy                            :       -10.39551916
 Correlation energy                         :        -0.42278614
 
 DOS at Fermi energy (states/Ha/cell)       :         1.45580909
 
 Electron charges :
     core                                   :         4.00000000
     core leakage                           :         0.00130887
     valence                                :         8.00000000
     interstitial                           :         4.71772411
     charge in muffin-tin spheres :
                  atom     1     C          :         3.64113795
                  atom     2     C          :         3.64113795
     total charge in muffin-tins            :         7.28227589
     total charge                           :        12.00000000
 
 Wall time (seconds)                        :      1279.18
 
 RMS change in effective potential (target) :  0.247842E-04  ( 0.100000E-05)
 Absolute change in total energy   (target) :  0.646870E-03  ( 0.100000E-06)
 Charge distance                   (target) :  0.126656E-04  ( 0.100000E-04)
 Abs. change in max-nonIBS-force   (target) :  0.640949E-06  ( 0.250000E-05)
 
++++++++++++++++++++++++++++++++++++++++++++++++++++++++++++++++++++++++++++++++
| SCF iteration number :    9                                                  +
++++++++++++++++++++++++++++++++++++++++++++++++++++++++++++++++++++++++++++++++
 Total energy                               :       -76.20618914
 _______________________________________________________________
 Fermi energy                               :         0.23564038
 Kinetic energy                             :        75.95592446
 Coulomb energy                             :      -141.34381332
 Exchange energy                            :       -10.39551396
 Correlation energy                         :        -0.42278632
 
 DOS at Fermi energy (states/Ha/cell)       :         1.45582329
 
 Electron charges :
     core                                   :         4.00000000
     core leakage                           :         0.00130887
     valence                                :         8.00000000
     interstitial                           :         4.71773228
     charge in muffin-tin spheres :
                  atom     1     C          :         3.64113386
                  atom     2     C          :         3.64113386
     total charge in muffin-tins            :         7.28226772
     total charge                           :        12.00000000
 
 Wall time (seconds)                        :      1438.67
 
 RMS change in effective potential (target) :  0.133437E-05  ( 0.100000E-05)
 Absolute change in total energy   (target) :  0.104995E-03  ( 0.100000E-06)
 Charge distance                   (target) :  0.160689E-05  ( 0.100000E-04)
 Abs. change in max-nonIBS-force   (target) :  0.727626E-07  ( 0.250000E-05)
 
++++++++++++++++++++++++++++++++++++++++++++++++++++++++++++++++++++++++++++++++
| SCF iteration number :   10                                                  +
++++++++++++++++++++++++++++++++++++++++++++++++++++++++++++++++++++++++++++++++
 Total energy                               :       -76.20618922
 _______________________________________________________________
 Fermi energy                               :         0.23564040
 Kinetic energy                             :        75.95592482
 Coulomb energy                             :      -141.34381374
 Exchange energy                            :       -10.39551398
 Correlation energy                         :        -0.42278632
 
 DOS at Fermi energy (states/Ha/cell)       :         1.45582341
 
 Electron charges :
     core                                   :         4.00000000
     core leakage                           :         0.00130887
     valence                                :         8.00000000
     interstitial                           :         4.71773228
     charge in muffin-tin spheres :
                  atom     1     C          :         3.64113386
                  atom     2     C          :         3.64113386
     total charge in muffin-tins            :         7.28226772
     total charge                           :        12.00000000
 
 Wall time (seconds)                        :      1598.47
 
 RMS change in effective potential (target) :  0.260485E-07  ( 0.100000E-05)
 Absolute change in total energy   (target) :  0.802877E-07  ( 0.100000E-06)
 Charge distance                   (target) :  0.156233E-07  ( 0.100000E-04)
 Abs. change in max-nonIBS-force   (target) :  0.543431E-07  ( 0.250000E-05)
 
++++++++++++++++++++++++++++++++++++++++++++++++++++++++++++++++++++++++++++++++
| Convergence targets achieved. Performing final SCF iteration                 +
++++++++++++++++++++++++++++++++++++++++++++++++++++++++++++++++++++++++++++++++
 Total energy                               :       -76.21541577
 _______________________________________________________________
 Fermi energy                               :         0.23564040
 Kinetic energy                             :        75.95592485
 Coulomb energy                             :      -141.34381374
 Exchange energy                            :       -10.39551398
 Correlation energy                         :        -0.42278632
 DFT-D2 dispersion correction               :        -0.00922658
 
 DOS at Fermi energy (states/Ha/cell)       :         1.45582342
 
 Electron charges :
     core                                   :         4.00000000
     core leakage                           :         0.00130887
     valence                                :         8.00000000
     interstitial                           :         4.71773228
     charge in muffin-tin spheres :
                  atom     1     C          :         3.64113386
                  atom     2     C          :         3.64113386
     total charge in muffin-tins            :         7.28226772
     total charge                           :        12.00000000
 
++++++++++++++++++++++++++++++++++++++++++++++++++++++++++++++++++++++++++++++++
| Self-consistent loop stopped                                                 +
++++++++++++++++++++++++++++++++++++++++++++++++++++++++++++++++++++++++++++++++
 STATE.OUT is written
 
--------------------------------------------------------------------------------
| Writing atomic positions and forces                                          -
--------------------------------------------------------------------------------
 
 Atomic positions (lattice) :
 atom     1   C  :     0.00000000    0.00000000    0.00000000
 atom     2   C  :     0.33333333    0.33333333    0.00000000
 
 Total atomic forces including IBS (cartesian) :
 atom     1   C  :     0.00000000   -0.00001751   -0.00000414
 atom     2   C  :     0.00000000    0.00001751    0.00000414
 
 Atomic force components including IBS (cartesian) :
 atom     1   C  :     0.00000000    0.00004281   -0.00005162   HF force
                 :     0.00000000   -0.00002843    0.00003778   core correction
                 :     0.00000000   -0.00003191    0.00001056   IBS correction
                 :     0.00000000    0.00000002   -0.00000086   DFT-D2 force
 atom     2   C  :     0.00000000   -0.00004281    0.00005162   HF force
                 :     0.00000000    0.00002843   -0.00003778   core correction
                 :     0.00000000    0.00003191   -0.00001056   IBS correction
                 :     0.00000000   -0.00000002    0.00000086   DFT-D2 force
 
********************************************************************************
| Groundstate module stopped                                                   *
********************************************************************************
 
********************************************************************************
| Structure-optimization module started                                        *
********************************************************************************
 Output level for this task is set to normal
 
 Maximum displacement tau_BFGS   is         :         0.3000
 Maximum displacement tau_newton is         :         0.8000
 
++++++++++++++++++++++++++++++++++++++++++++++++++++++++++++++++++++++++++++++++
| Use harmonic method for optimizing atomic positions                          +
++++++++++++++++++++++++++++++++++++++++++++++++++++++++++++++++++++++++++++++++
 
--------------------------------------------------------------------------------
| Optimization step 0: Initialize optimization                                 -
--------------------------------------------------------------------------------
 Maximum force magnitude           (target) :         0.00001799  (  0.00001000)
 Total energy at this optimization step     :       -76.21541577
 
 Atomic positions at this step (lattice) :
 atom     1   C  :     0.00000000    0.00000000    0.00000000
 atom     2   C  :     0.33333333    0.33333333    0.00000000
 
 Total atomic forces including IBS (cartesian) :
 atom     1   C  :     0.00000000   -0.00001751   -0.00000414
 atom     2   C  :     0.00000000    0.00001751    0.00000414
 
--------------------------------------------------------------------------------
| Optimization step    1    (method = harmonic)                                -
--------------------------------------------------------------------------------
 Number of scf iterations                   :         6  (full newton step)
 Maximum force magnitude           (target) :         0.00000614  (  0.00001000)
 Total energy at this optimization step     :       -76.21541577
 
 Atomic positions at this step (lattice) :
 atom     1   C  :     0.00000000    0.00000000    0.00000000
 atom     2   C  :     0.33333685    0.33333685    0.00000124
 
 Total atomic forces including IBS (cartesian) :
 atom     1   C  :     0.00000000   -0.00000485   -0.00000376
 atom     2   C  :     0.00000000    0.00000485    0.00000376
 
 Time spent in this optimization step       :      1069.50 seconds
 
++++++++++++++++++++++++++++++++++++++++++++++++++++++++++++++++++++++++++++++++
| Force convergence target achieved                                            +
++++++++++++++++++++++++++++++++++++++++++++++++++++++++++++++++++++++++++++++++
 Total energy                               :       -76.21541577
 _______________________________________________________________
 Fermi energy                               :         0.23564040
 Kinetic energy                             :        75.95592485
 Coulomb energy                             :      -141.34381374
 Exchange energy                            :       -10.39551398
 Correlation energy                         :        -0.42278632
 DFT-D2 dispersion correction               :        -0.00922658
 
 DOS at Fermi energy (states/Ha/cell)       :         1.45582545
 
 Electron charges :
     core                                   :         4.00000000
     core leakage                           :         0.00130887
     valence                                :         8.00000000
     interstitial                           :         4.71773228
     charge in muffin-tin spheres :
                  atom     1     C          :         3.64113386
                  atom     2     C          :         3.64113386
     total charge in muffin-tins            :         7.28226772
     total charge                           :        12.00000000
 
 Optimized atomic positions (lattice) :
 atom     1   C  :     0.00000000    0.00000000    0.00000000
 atom     2   C  :     0.33333685    0.33333685    0.00000124
 
 Total atomic forces including IBS (cartesian) :
 atom     1   C  :     0.00000000   -0.00000485   -0.00000376
 atom     2   C  :     0.00000000    0.00000485    0.00000376
 
 Atomic force components including IBS (cartesian) :
 atom     1   C  :     0.00000000    0.00005559   -0.00005169   HF force
                 :     0.00000000   -0.00002850    0.00003817   core correction
                 :     0.00000000   -0.00003198    0.00001062   IBS correction
                 :     0.00000000    0.00000004   -0.00000086   DFT-D2 force
 atom     2   C  :     0.00000000   -0.00005559    0.00005169   HF force
                 :     0.00000000    0.00002850   -0.00003817   core correction
                 :     0.00000000    0.00003198   -0.00001062   IBS correction
                 :     0.00000000   -0.00000004    0.00000086   DFT-D2 force
 
********************************************************************************
| Structure-optimization module stopped                                        *
********************************************************************************
 
 Total time spent (seconds)                 :      2959.26
 
================================================================================
| EXCITING BORON stopped                                                       =
================================================================================
