================================================================================
| EXCITING BORON started                                                       =
| version hash id:                                                             =
| MPI version using     16 processor(s)                                        =
|                                                                              =
| Date (DD-MM-YYYY) : 12-08-2015                                               =
| Time (hh:mm:ss)   : 21:45:33                                                 =
|                                                                              =
| All units are atomic (Hartree, Bohr, etc.)                                   =
================================================================================
 
********************************************************************************
| Structural optimisation starting from atomic densities                       *
********************************************************************************
 
++++++++++++++++++++++++++++++++++++++++++++++++++++++++++++++++++++++++++++++++
| Starting initialization                                                      +
++++++++++++++++++++++++++++++++++++++++++++++++++++++++++++++++++++++++++++++++
 
 Lattice vectors (cartesian) :
      2.5491007826      4.4151720691      0.0000000000
     -2.5491007826      4.4151720691      0.0000000000
      0.0000000000      0.0000000000      6.5761020000
 
 Reciprocal lattice vectors (cartesian) :
      1.2324317167      0.7115447834      0.0000000000
     -1.2324317167      0.7115447834      0.0000000000
      0.0000000000      0.0000000000      0.9554573982
 
 Unit cell volume                           :     148.0243546838
 Brillouin zone volume                      :       1.6757391983
 
 Species :    1 (C)
     parameters loaded from                 :    C.xml
     name                                   :    carbon
     nuclear charge                         :      -6.00000000
     electronic charge                      :       6.00000000
     atomic mass                            :   21894.16673000
     muffin-tin radius                      :       1.20000000
     # of radial points in muffin-tin       :     250
 
     atomic positions (lattice) :
       1 :   0.00000000  0.00000000  0.00000000
       2 :   0.33333333  0.33333333  0.00000000
 
 Total number of atoms per unit cell        :       2
 
 Spin treatment                             :    spin-unpolarised
 
 Number of Bravais lattice symmetries       :      24
 Number of crystal symmetries               :      24
 
 k-point grid                               :      34   34   24
 Total number of k-points                   :    1482
 k-point set is reduced with crystal symmetries
 
 R^MT_min * |G+k|_max (rgkmax)              :       8.00000000
 Species with R^MT_min                      :       1 (C)
 Maximum |G+k| for APW functions            :       6.66666667
 Maximum |G| for potential and density      :      20.00000000
 
 G-vector grid sizes                        :      36    36    45
 Total number of G-vectors                  :   19973
 
 Maximum angular momentum used for
     APW functions                          :       8
     computing H and O matrix elements      :       8
     potential and density                  :       8
     inner part of muffin-tin               :       2
 
 Total nuclear charge                       :     -12.00000000
 Total electronic charge                    :      12.00000000
 Total core charge                          :       4.00000000
 Total valence charge                       :       8.00000000
 
 Number of empty states                     :       5
 Total number of valence states             :      10
 
 Maximum Hamiltonian size                   :     775
 Maximum number of plane-waves              :     767
 Total number of local-orbitals             :       8
 
 Exchange-correlation type                  :      20
     Perdew-Burke-Ernzerhof, Phys. Rev. Lett. 77, 3865 (1996)
     Generalised gradient approximation (GGA)
 
 Smearing scheme                            :    Gaussian
 Smearing width                             :       0.01000000
 
 Using multisecant Broyden potential mixing
 
++++++++++++++++++++++++++++++++++++++++++++++++++++++++++++++++++++++++++++++++
| Ending initialization                                                        +
++++++++++++++++++++++++++++++++++++++++++++++++++++++++++++++++++++++++++++++++
 
********************************************************************************
| Groundstate module started                                                   *
********************************************************************************
 Output level for this task is set to normal
 
++++++++++++++++++++++++++++++++++++++++++++++++++++++++++++++++++++++++++++++++
| Self-consistent loop started                                                 +
++++++++++++++++++++++++++++++++++++++++++++++++++++++++++++++++++++++++++++++++
 Density and potential initialised from atomic data
 
 
++++++++++++++++++++++++++++++++++++++++++++++++++++++++++++++++++++++++++++++++
| SCF iteration number :    1                                                  +
++++++++++++++++++++++++++++++++++++++++++++++++++++++++++++++++++++++++++++++++
 Total energy                               :       -77.38603839
 _______________________________________________________________
 Fermi energy                               :         0.11988276
 Kinetic energy                             :        74.40144010
 Coulomb energy                             :      -141.10063462
 Exchange energy                            :       -10.28152213
 Correlation energy                         :        -0.40532175
 
 DOS at Fermi energy (states/Ha/cell)       :         1.89922613
 
 Electron charges :
     core                                   :         4.00000000
     core leakage                           :         0.00126730
     valence                                :         8.00000000
     interstitial                           :         4.94319375
     charge in muffin-tin spheres :
                  atom     1     C          :         3.52840312
                  atom     2     C          :         3.52840312
     total charge in muffin-tins            :         7.05680625
     total charge                           :        12.00000000
 
 Wall time (seconds)                        :        59.00
 
++++++++++++++++++++++++++++++++++++++++++++++++++++++++++++++++++++++++++++++++
| SCF iteration number :    2                                                  +
++++++++++++++++++++++++++++++++++++++++++++++++++++++++++++++++++++++++++++++++
 Total energy                               :       -76.93537599
 _______________________________________________________________
 Fermi energy                               :         0.13257242
 Kinetic energy                             :        74.69538433
 Coulomb energy                             :      -140.96694344
 Exchange energy                            :       -10.25784350
 Correlation energy                         :        -0.40597338
 
 DOS at Fermi energy (states/Ha/cell)       :         1.98552612
 
 Electron charges :
     core                                   :         4.00000000
     core leakage                           :         0.00127303
     valence                                :         8.00000000
     interstitial                           :         4.98245811
     charge in muffin-tin spheres :
                  atom     1     C          :         3.50877095
                  atom     2     C          :         3.50877095
     total charge in muffin-tins            :         7.01754189
     total charge                           :        12.00000000
 
 Wall time (seconds)                        :       116.64
 
 RMS change in effective potential (target) :   1.42646      ( 0.100000E-05)
 Absolute change in total energy   (target) :  0.450662      ( 0.100000E-06)
 Charge distance                   (target) :  0.851295E-02  ( 0.100000E-04)
 Abs. change in max-nonIBS-force   (target) :   0.00000      ( 0.250000E-05)
 
++++++++++++++++++++++++++++++++++++++++++++++++++++++++++++++++++++++++++++++++
| SCF iteration number :    3                                                  +
++++++++++++++++++++++++++++++++++++++++++++++++++++++++++++++++++++++++++++++++
 Total energy                               :       -76.61952561
 _______________________________________________________________
 Fermi energy                               :         0.14131200
 Kinetic energy                             :        74.90110886
 Coulomb energy                             :      -140.87318078
 Exchange energy                            :       -10.24099236
 Correlation energy                         :        -0.40646134
 
 DOS at Fermi energy (states/Ha/cell)       :         2.05156882
 
 Electron charges :
     core                                   :         4.00000000
     core leakage                           :         0.00127637
     valence                                :         8.00000000
     interstitial                           :         5.01063334
     charge in muffin-tin spheres :
                  atom     1     C          :         3.49468333
                  atom     2     C          :         3.49468333
     total charge in muffin-tins            :         6.98936666
     total charge                           :        12.00000000
 
 Wall time (seconds)                        :       174.97
 
 RMS change in effective potential (target) :   1.04815      ( 0.100000E-05)
 Absolute change in total energy   (target) :  0.315850      ( 0.100000E-06)
 Charge distance                   (target) :  0.618601E-02  ( 0.100000E-04)
 Abs. change in max-nonIBS-force   (target) :   0.00000      ( 0.250000E-05)
 
++++++++++++++++++++++++++++++++++++++++++++++++++++++++++++++++++++++++++++++++
| SCF iteration number :    4                                                  +
++++++++++++++++++++++++++++++++++++++++++++++++++++++++++++++++++++++++++++++++
 Total energy                               :       -76.48475631
 _______________________________________________________________
 Fermi energy                               :         0.14531561
 Kinetic energy                             :        75.00307885
 Coulomb energy                             :      -140.84914553
 Exchange energy                            :       -10.23193343
 Correlation energy                         :        -0.40675620
 
 DOS at Fermi energy (states/Ha/cell)       :         2.09578742
 
 Electron charges :
     core                                   :         4.00000000
     core leakage                           :         0.00126833
     valence                                :         8.00000000
     interstitial                           :         5.02862889
     charge in muffin-tin spheres :
                  atom     1     C          :         3.48568556
                  atom     2     C          :         3.48568556
     total charge in muffin-tins            :         6.97137111
     total charge                           :        12.00000000
 
 Wall time (seconds)                        :       232.99
 
 RMS change in effective potential (target) :  0.352167E-01  ( 0.100000E-05)
 Absolute change in total energy   (target) :  0.134769      ( 0.100000E-06)
 Charge distance                   (target) :  0.456796E-02  ( 0.100000E-04)
 Abs. change in max-nonIBS-force   (target) :   0.00000      ( 0.250000E-05)
 
++++++++++++++++++++++++++++++++++++++++++++++++++++++++++++++++++++++++++++++++
| SCF iteration number :    5                                                  +
++++++++++++++++++++++++++++++++++++++++++++++++++++++++++++++++++++++++++++++++
 Total energy                               :       -75.98823766
 _______________________________________________________________
 Fermi energy                               :         0.15830639
 Kinetic energy                             :        75.30794379
 Coulomb energy                             :      -140.68235007
 Exchange energy                            :       -10.20629305
 Correlation energy                         :        -0.40753833
 
 DOS at Fermi energy (states/Ha/cell)       :         2.19787486
 
 Electron charges :
     core                                   :         4.00000000
     core leakage                           :         0.00128066
     valence                                :         8.00000000
     interstitial                           :         5.06934380
     charge in muffin-tin spheres :
                  atom     1     C          :         3.46532810
                  atom     2     C          :         3.46532810
     total charge in muffin-tins            :         6.93065620
     total charge                           :        12.00000000
 
 Wall time (seconds)                        :       291.26
 
 RMS change in effective potential (target) :  0.221826E-01  ( 0.100000E-05)
 Absolute change in total energy   (target) :  0.496519      ( 0.100000E-06)
 Charge distance                   (target) :  0.861039E-02  ( 0.100000E-04)
 Abs. change in max-nonIBS-force   (target) :   0.00000      ( 0.250000E-05)
 
++++++++++++++++++++++++++++++++++++++++++++++++++++++++++++++++++++++++++++++++
| SCF iteration number :    6                                                  +
++++++++++++++++++++++++++++++++++++++++++++++++++++++++++++++++++++++++++++++++
 Total energy                               :       -76.16826419
 _______________________________________________________________
 Fermi energy                               :         0.15366606
 Kinetic energy                             :        75.19803495
 Coulomb energy                             :      -140.74339147
 Exchange energy                            :       -10.21565822
 Correlation energy                         :        -0.40724945
 
 DOS at Fermi energy (states/Ha/cell)       :         2.15957916
 
 Electron charges :
     core                                   :         4.00000000
     core leakage                           :         0.00127620
     valence                                :         8.00000000
     interstitial                           :         5.05448506
     charge in muffin-tin spheres :
                  atom     1     C          :         3.47275747
                  atom     2     C          :         3.47275747
     total charge in muffin-tins            :         6.94551494
     total charge                           :        12.00000000
 
 Wall time (seconds)                        :       349.23
 
 RMS change in effective potential (target) :  0.303406E-03  ( 0.100000E-05)
 Absolute change in total energy   (target) :  0.180027      ( 0.100000E-06)
 Charge distance                   (target) :  0.315593E-02  ( 0.100000E-04)
 Abs. change in max-nonIBS-force   (target) :   0.00000      ( 0.250000E-05)
 
++++++++++++++++++++++++++++++++++++++++++++++++++++++++++++++++++++++++++++++++
| SCF iteration number :    7                                                  +
++++++++++++++++++++++++++++++++++++++++++++++++++++++++++++++++++++++++++++++++
 Total energy                               :       -76.17193940
 _______________________________________________________________
 Fermi energy                               :         0.15356664
 Kinetic energy                             :        75.19579887
 Coulomb energy                             :      -140.74465201
 Exchange energy                            :       -10.21584283
 Correlation energy                         :        -0.40724342
 
 DOS at Fermi energy (states/Ha/cell)       :         2.15891050
 
 Electron charges :
     core                                   :         4.00000000
     core leakage                           :         0.00127609
     valence                                :         8.00000000
     interstitial                           :         5.05419036
     charge in muffin-tin spheres :
                  atom     1     C          :         3.47290482
                  atom     2     C          :         3.47290482
     total charge in muffin-tins            :         6.94580964
     total charge                           :        12.00000000
 
 Wall time (seconds)                        :       406.75
 
 RMS change in effective potential (target) :  0.612533E-04  ( 0.100000E-05)
 Absolute change in total energy   (target) :  0.367520E-02  ( 0.100000E-06)
 Charge distance                   (target) :  0.603195E-04  ( 0.100000E-04)
 Abs. change in max-nonIBS-force   (target) :   0.00000      ( 0.250000E-05)
 
++++++++++++++++++++++++++++++++++++++++++++++++++++++++++++++++++++++++++++++++
| SCF iteration number :    8                                                  +
++++++++++++++++++++++++++++++++++++++++++++++++++++++++++++++++++++++++++++++++
 Total energy                               :       -76.17172505
 _______________________________________________________________
 Fermi energy                               :         0.15357210
 Kinetic energy                             :        75.19591112
 Coulomb energy                             :      -140.74456092
 Exchange energy                            :       -10.21583142
 Correlation energy                         :        -0.40724383
 
 DOS at Fermi energy (states/Ha/cell)       :         2.15894008
 
 Electron charges :
     core                                   :         4.00000000
     core leakage                           :         0.00127610
     valence                                :         8.00000000
     interstitial                           :         5.05420782
     charge in muffin-tin spheres :
                  atom     1     C          :         3.47289609
                  atom     2     C          :         3.47289609
     total charge in muffin-tins            :         6.94579218
     total charge                           :        12.00000000
 
 Wall time (seconds)                        :       464.92
 
 RMS change in effective potential (target) :  0.864577E-05  ( 0.100000E-05)
 Absolute change in total energy   (target) :  0.214344E-03  ( 0.100000E-06)
 Charge distance                   (target) :  0.342430E-05  ( 0.100000E-04)
 Abs. change in max-nonIBS-force   (target) :   0.00000      ( 0.250000E-05)
 
++++++++++++++++++++++++++++++++++++++++++++++++++++++++++++++++++++++++++++++++
| SCF iteration number :    9                                                  +
++++++++++++++++++++++++++++++++++++++++++++++++++++++++++++++++++++++++++++++++
 Total energy                               :       -76.17169662
 _______________________________________________________________
 Fermi energy                               :         0.15357285
 Kinetic energy                             :        75.19593362
 Coulomb energy                             :      -140.74455633
 Exchange energy                            :       -10.21583005
 Correlation energy                         :        -0.40724386
 
 DOS at Fermi energy (states/Ha/cell)       :         2.15894965
 
 Electron charges :
     core                                   :         4.00000000
     core leakage                           :         0.00127610
     valence                                :         8.00000000
     interstitial                           :         5.05421019
     charge in muffin-tin spheres :
                  atom     1     C          :         3.47289491
                  atom     2     C          :         3.47289491
     total charge in muffin-tins            :         6.94578981
     total charge                           :        12.00000000
 
 Wall time (seconds)                        :       522.32
 
 RMS change in effective potential (target) :  0.382506E-06  ( 0.100000E-05)
 Absolute change in total energy   (target) :  0.284334E-04  ( 0.100000E-06)
 Charge distance                   (target) :  0.667005E-06  ( 0.100000E-04)
 Abs. change in max-nonIBS-force   (target) :   0.00000      ( 0.250000E-05)
 
++++++++++++++++++++++++++++++++++++++++++++++++++++++++++++++++++++++++++++++++
| SCF iteration number :   10                                                  +
++++++++++++++++++++++++++++++++++++++++++++++++++++++++++++++++++++++++++++++++
 Total energy                               :       -76.17169958
 _______________________________________________________________
 Fermi energy                               :         0.15357278
 Kinetic energy                             :        75.19593152
 Coulomb energy                             :      -140.74455704
 Exchange energy                            :       -10.21583021
 Correlation energy                         :        -0.40724385
 
 DOS at Fermi energy (states/Ha/cell)       :         2.15894878
 
 Electron charges :
     core                                   :         4.00000000
     core leakage                           :         0.00127610
     valence                                :         8.00000000
     interstitial                           :         5.05420994
     charge in muffin-tin spheres :
                  atom     1     C          :         3.47289503
                  atom     2     C          :         3.47289503
     total charge in muffin-tins            :         6.94579006
     total charge                           :        12.00000000
 
 Wall time (seconds)                        :       579.89
 
 RMS change in effective potential (target) :  0.384666E-07  ( 0.100000E-05)
 Absolute change in total energy   (target) :  0.295709E-05  ( 0.100000E-06)
 Charge distance                   (target) :  0.618943E-07  ( 0.100000E-04)
 Abs. change in max-nonIBS-force   (target) :   0.00000      ( 0.250000E-05)
 
++++++++++++++++++++++++++++++++++++++++++++++++++++++++++++++++++++++++++++++++
| SCF iteration number :   11                                                  +
++++++++++++++++++++++++++++++++++++++++++++++++++++++++++++++++++++++++++++++++
 Total energy                               :       -76.17169957
 _______________________________________________________________
 Fermi energy                               :         0.15357278
 Kinetic energy                             :        75.19593152
 Coulomb energy                             :      -140.74455703
 Exchange energy                            :       -10.21583020
 Correlation energy                         :        -0.40724385
 
 DOS at Fermi energy (states/Ha/cell)       :         2.15894878
 
 Electron charges :
     core                                   :         4.00000000
     core leakage                           :         0.00127610
     valence                                :         8.00000000
     interstitial                           :         5.05420994
     charge in muffin-tin spheres :
                  atom     1     C          :         3.47289503
                  atom     2     C          :         3.47289503
     total charge in muffin-tins            :         6.94579006
     total charge                           :        12.00000000
 
 Wall time (seconds)                        :       637.90
 
 RMS change in effective potential (target) :  0.218676E-07  ( 0.100000E-05)
 Absolute change in total energy   (target) :  0.448480E-08  ( 0.100000E-06)
 Charge distance                   (target) :  0.127449E-09  ( 0.100000E-04)
 Abs. change in max-nonIBS-force   (target) :   0.00000      ( 0.250000E-05)
 
++++++++++++++++++++++++++++++++++++++++++++++++++++++++++++++++++++++++++++++++
| Convergence targets achieved. Performing final SCF iteration                 +
++++++++++++++++++++++++++++++++++++++++++++++++++++++++++++++++++++++++++++++++
 Total energy                               :       -76.17951992
 _______________________________________________________________
 Fermi energy                               :         0.15357278
 Kinetic energy                             :        75.19593153
 Coulomb energy                             :      -140.74455703
 Exchange energy                            :       -10.21583020
 Correlation energy                         :        -0.40724385
 DFT-D2 dispersion correction               :        -0.00782036
 
 DOS at Fermi energy (states/Ha/cell)       :         2.15894878
 
 Electron charges :
     core                                   :         4.00000000
     core leakage                           :         0.00127610
     valence                                :         8.00000000
     interstitial                           :         5.05420994
     charge in muffin-tin spheres :
                  atom     1     C          :         3.47289503
                  atom     2     C          :         3.47289503
     total charge in muffin-tins            :         6.94579006
     total charge                           :        12.00000000
 
++++++++++++++++++++++++++++++++++++++++++++++++++++++++++++++++++++++++++++++++
| Self-consistent loop stopped                                                 +
++++++++++++++++++++++++++++++++++++++++++++++++++++++++++++++++++++++++++++++++
 STATE.OUT is written
 
--------------------------------------------------------------------------------
| Writing atomic positions and forces                                          -
--------------------------------------------------------------------------------
 
 Atomic positions (lattice) :
 atom     1   C  :     0.00000000    0.00000000    0.00000000
 atom     2   C  :     0.33333333    0.33333333    0.00000000
 
 Total atomic forces including IBS (cartesian) :
 atom     1   C  :     0.00000000    0.00000000    0.00000000
 atom     2   C  :     0.00000000    0.00000000    0.00000000
 
 Atomic force components including IBS (cartesian) :
 atom     1   C  :     0.00000000    0.00000000    0.00000000   HF force
                 :     0.00000000    0.00000000    0.00000000   core correction
                 :     0.00000000    0.00000000    0.00000000   IBS correction
                 :     0.00000000    0.00000000    0.00000000   DFT-D2 force
 atom     2   C  :     0.00000000    0.00000000    0.00000000   HF force
                 :     0.00000000    0.00000000    0.00000000   core correction
                 :     0.00000000    0.00000000    0.00000000   IBS correction
                 :     0.00000000    0.00000000    0.00000000   DFT-D2 force
 
********************************************************************************
| Groundstate module stopped                                                   *
********************************************************************************
 
********************************************************************************
| Structure-optimization module started                                        *
********************************************************************************
 Output level for this task is set to normal
 
 Maximum displacement tau_BFGS   is         :         0.3000
 Maximum displacement tau_newton is         :         0.8000
 Maximum force target reached already at the initial configuration
 
********************************************************************************
| Structure-optimization module stopped                                        *
********************************************************************************
 
 Total time spent (seconds)                 :       739.58
 
================================================================================
| EXCITING BORON stopped                                                       =
================================================================================
