================================================================================
| EXCITING BORON started                                                       =
| version hash id:                                                             =
| MPI version using     16 processor(s)                                        =
|                                                                              =
| Date (DD-MM-YYYY) : 12-08-2015                                               =
| Time (hh:mm:ss)   : 20:54:57                                                 =
|                                                                              =
| All units are atomic (Hartree, Bohr, etc.)                                   =
================================================================================
 
********************************************************************************
| Structural optimisation starting from atomic densities                       *
********************************************************************************
 
++++++++++++++++++++++++++++++++++++++++++++++++++++++++++++++++++++++++++++++++
| Starting initialization                                                      +
++++++++++++++++++++++++++++++++++++++++++++++++++++++++++++++++++++++++++++++++
 
 Lattice vectors (cartesian) :
      2.1829194946      3.7809274735      0.0000000000
     -2.1829194946      3.7809274735      0.0000000000
      0.0000000000      0.0000000000      6.5761020000
 
 Reciprocal lattice vectors (cartesian) :
      1.4391701853      0.8309052939      0.0000000000
     -1.4391701853      0.8309052939      0.0000000000
      0.0000000000      0.0000000000      0.9554573982
 
 Unit cell volume                           :     108.5511934355
 Brillouin zone volume                      :       2.2850989067
 
 Species :    1 (C)
     parameters loaded from                 :    C.xml
     name                                   :    carbon
     nuclear charge                         :      -6.00000000
     electronic charge                      :       6.00000000
     atomic mass                            :   21894.16673000
     muffin-tin radius                      :       1.20000000
     # of radial points in muffin-tin       :     250
 
     atomic positions (lattice) :
       1 :   0.00000000  0.00000000  0.00000000
       2 :   0.33333333  0.33333333  0.00000000
 
 Total number of atoms per unit cell        :       2
 
 Spin treatment                             :    spin-unpolarised
 
 Number of Bravais lattice symmetries       :      24
 Number of crystal symmetries               :      24
 
 k-point grid                               :      34   34   24
 Total number of k-points                   :    1482
 k-point set is reduced with crystal symmetries
 
 R^MT_min * |G+k|_max (rgkmax)              :       8.00000000
 Species with R^MT_min                      :       1 (C)
 Maximum |G+k| for APW functions            :       6.66666667
 Maximum |G| for potential and density      :      20.00000000
 
 G-vector grid sizes                        :      30    30    45
 Total number of G-vectors                  :   14597
 
 Maximum angular momentum used for
     APW functions                          :       8
     computing H and O matrix elements      :       8
     potential and density                  :       8
     inner part of muffin-tin               :       2
 
 Total nuclear charge                       :     -12.00000000
 Total electronic charge                    :      12.00000000
 Total core charge                          :       4.00000000
 Total valence charge                       :       8.00000000
 
 Number of empty states                     :       5
 Total number of valence states             :      10
 
 Maximum Hamiltonian size                   :     574
 Maximum number of plane-waves              :     566
 Total number of local-orbitals             :       8
 
 Exchange-correlation type                  :      20
     Perdew-Burke-Ernzerhof, Phys. Rev. Lett. 77, 3865 (1996)
     Generalised gradient approximation (GGA)
 
 Smearing scheme                            :    Gaussian
 Smearing width                             :       0.01000000
 
 Using multisecant Broyden potential mixing
 
++++++++++++++++++++++++++++++++++++++++++++++++++++++++++++++++++++++++++++++++
| Ending initialization                                                        +
++++++++++++++++++++++++++++++++++++++++++++++++++++++++++++++++++++++++++++++++
 
********************************************************************************
| Groundstate module started                                                   *
********************************************************************************
 Output level for this task is set to normal
 
++++++++++++++++++++++++++++++++++++++++++++++++++++++++++++++++++++++++++++++++
| Self-consistent loop started                                                 +
++++++++++++++++++++++++++++++++++++++++++++++++++++++++++++++++++++++++++++++++
 Density and potential initialised from atomic data
 
 
++++++++++++++++++++++++++++++++++++++++++++++++++++++++++++++++++++++++++++++++
| SCF iteration number :    1                                                  +
++++++++++++++++++++++++++++++++++++++++++++++++++++++++++++++++++++++++++++++++
 Total energy                               :       -79.17831193
 _______________________________________________________________
 Fermi energy                               :         0.18961455
 Kinetic energy                             :        74.59565620
 Coulomb energy                             :      -142.66411730
 Exchange energy                            :       -10.68088079
 Correlation energy                         :        -0.42897005
 
 DOS at Fermi energy (states/Ha/cell)       :         0.60990720
 
 Electron charges :
     core                                   :         4.00000000
     core leakage                           :         0.00129875
     valence                                :         8.00000000
     interstitial                           :         4.16311433
     charge in muffin-tin spheres :
                  atom     1     C          :         3.91844284
                  atom     2     C          :         3.91844284
     total charge in muffin-tins            :         7.83688567
     total charge                           :        12.00000000
 
 Wall time (seconds)                        :        28.73
 
++++++++++++++++++++++++++++++++++++++++++++++++++++++++++++++++++++++++++++++++
| SCF iteration number :    2                                                  +
++++++++++++++++++++++++++++++++++++++++++++++++++++++++++++++++++++++++++++++++
 Total energy                               :       -78.08546241
 _______________________________________________________________
 Fermi energy                               :         0.22044317
 Kinetic energy                             :        75.35808984
 Coulomb energy                             :      -142.38209053
 Exchange energy                            :       -10.63146241
 Correlation energy                         :        -0.42999931
 
 DOS at Fermi energy (states/Ha/cell)       :         0.66740729
 
 Electron charges :
     core                                   :         4.00000000
     core leakage                           :         0.00131700
     valence                                :         8.00000000
     interstitial                           :         4.24682221
     charge in muffin-tin spheres :
                  atom     1     C          :         3.87658890
                  atom     2     C          :         3.87658890
     total charge in muffin-tins            :         7.75317779
     total charge                           :        12.00000000
 
 Wall time (seconds)                        :        56.03
 
 RMS change in effective potential (target) :   1.64135      ( 0.100000E-05)
 Absolute change in total energy   (target) :   1.09285      ( 0.100000E-06)
 Charge distance                   (target) :  0.161467E-01  ( 0.100000E-04)
 Abs. change in max-nonIBS-force   (target) :   0.00000      ( 0.250000E-05)
 
++++++++++++++++++++++++++++++++++++++++++++++++++++++++++++++++++++++++++++++++
| SCF iteration number :    3                                                  +
++++++++++++++++++++++++++++++++++++++++++++++++++++++++++++++++++++++++++++++++
 Total energy                               :       -77.30579127
 _______________________________________________________________
 Fermi energy                               :         0.24136313
 Kinetic energy                             :        75.89542718
 Coulomb energy                             :      -142.17518611
 Exchange energy                            :       -10.59520198
 Correlation energy                         :        -0.43083035
 
 DOS at Fermi energy (states/Ha/cell)       :         0.71175776
 
 Electron charges :
     core                                   :         4.00000000
     core leakage                           :         0.00132914
     valence                                :         8.00000000
     interstitial                           :         4.30863106
     charge in muffin-tin spheres :
                  atom     1     C          :         3.84568447
                  atom     2     C          :         3.84568447
     total charge in muffin-tins            :         7.69136894
     total charge                           :        12.00000000
 
 Wall time (seconds)                        :        83.21
 
 RMS change in effective potential (target) :   1.21590      ( 0.100000E-05)
 Absolute change in total energy   (target) :  0.779671      ( 0.100000E-06)
 Charge distance                   (target) :  0.120557E-01  ( 0.100000E-04)
 Abs. change in max-nonIBS-force   (target) :   0.00000      ( 0.250000E-05)
 
++++++++++++++++++++++++++++++++++++++++++++++++++++++++++++++++++++++++++++++++
| SCF iteration number :    4                                                  +
++++++++++++++++++++++++++++++++++++++++++++++++++++++++++++++++++++++++++++++++
 Total energy                               :       -76.92654956
 _______________________________________________________________
 Fermi energy                               :         0.24997407
 Kinetic energy                             :        76.16986529
 Coulomb energy                             :      -142.09114457
 Exchange energy                            :       -10.57383884
 Correlation energy                         :        -0.43143144
 
 DOS at Fermi energy (states/Ha/cell)       :         0.74053983
 
 Electron charges :
     core                                   :         4.00000000
     core leakage                           :         0.00132276
     valence                                :         8.00000000
     interstitial                           :         4.35103928
     charge in muffin-tin spheres :
                  atom     1     C          :         3.82448036
                  atom     2     C          :         3.82448036
     total charge in muffin-tins            :         7.64896072
     total charge                           :        12.00000000
 
 Wall time (seconds)                        :       110.43
 
 RMS change in effective potential (target) :  0.890834E-01  ( 0.100000E-05)
 Absolute change in total energy   (target) :  0.379242      ( 0.100000E-06)
 Charge distance                   (target) :  0.866887E-02  ( 0.100000E-04)
 Abs. change in max-nonIBS-force   (target) :   0.00000      ( 0.250000E-05)
 
++++++++++++++++++++++++++++++++++++++++++++++++++++++++++++++++++++++++++++++++
| SCF iteration number :    5                                                  +
++++++++++++++++++++++++++++++++++++++++++++++++++++++++++++++++++++++++++++++++
 Total energy                               :       -75.88042318
 _______________________________________________________________
 Fermi energy                               :         0.27660516
 Kinetic energy                             :        76.86297951
 Coulomb energy                             :      -141.78496987
 Exchange energy                            :       -10.52579711
 Correlation energy                         :        -0.43263571
 
 DOS at Fermi energy (states/Ha/cell)       :         0.80074920
 
 Electron charges :
     core                                   :         4.00000000
     core leakage                           :         0.00134699
     valence                                :         8.00000000
     interstitial                           :         4.42964903
     charge in muffin-tin spheres :
                  atom     1     C          :         3.78517548
                  atom     2     C          :         3.78517548
     total charge in muffin-tins            :         7.57035097
     total charge                           :        12.00000000
 
 Wall time (seconds)                        :       137.54
 
 RMS change in effective potential (target) :  0.344853E-01  ( 0.100000E-05)
 Absolute change in total energy   (target) :   1.04613      ( 0.100000E-06)
 Charge distance                   (target) :  0.153560E-01  ( 0.100000E-04)
 Abs. change in max-nonIBS-force   (target) :   0.00000      ( 0.250000E-05)
 
++++++++++++++++++++++++++++++++++++++++++++++++++++++++++++++++++++++++++++++++
| SCF iteration number :    6                                                  +
++++++++++++++++++++++++++++++++++++++++++++++++++++++++++++++++++++++++++++++++
 Total energy                               :       -76.18545099
 _______________________________________________________________
 Fermi energy                               :         0.26901152
 Kinetic energy                             :        76.66068540
 Coulomb energy                             :      -141.87391282
 Exchange energy                            :       -10.53994505
 Correlation energy                         :        -0.43227852
 
 DOS at Fermi energy (states/Ha/cell)       :         0.78242791
 
 Electron charges :
     core                                   :         4.00000000
     core leakage                           :         0.00134044
     valence                                :         8.00000000
     interstitial                           :         4.40633916
     charge in muffin-tin spheres :
                  atom     1     C          :         3.79683042
                  atom     2     C          :         3.79683042
     total charge in muffin-tins            :         7.59366084
     total charge                           :        12.00000000
 
 Wall time (seconds)                        :       164.69
 
 RMS change in effective potential (target) :  0.102562E-02  ( 0.100000E-05)
 Absolute change in total energy   (target) :  0.305028      ( 0.100000E-06)
 Charge distance                   (target) :  0.460994E-02  ( 0.100000E-04)
 Abs. change in max-nonIBS-force   (target) :   0.00000      ( 0.250000E-05)
 
++++++++++++++++++++++++++++++++++++++++++++++++++++++++++++++++++++++++++++++++
| SCF iteration number :    7                                                  +
++++++++++++++++++++++++++++++++++++++++++++++++++++++++++++++++++++++++++++++++
 Total energy                               :       -76.18209436
 _______________________________________________________________
 Fermi energy                               :         0.26909651
 Kinetic energy                             :        76.66354059
 Coulomb energy                             :      -141.87355805
 Exchange energy                            :       -10.53979795
 Correlation energy                         :        -0.43227895
 
 DOS at Fermi energy (states/Ha/cell)       :         0.78276996
 
 Electron charges :
     core                                   :         4.00000000
     core leakage                           :         0.00134035
     valence                                :         8.00000000
     interstitial                           :         4.40661628
     charge in muffin-tin spheres :
                  atom     1     C          :         3.79669186
                  atom     2     C          :         3.79669186
     total charge in muffin-tins            :         7.59338372
     total charge                           :        12.00000000
 
 Wall time (seconds)                        :       191.78
 
 RMS change in effective potential (target) :  0.218402E-03  ( 0.100000E-05)
 Absolute change in total energy   (target) :  0.335662E-02  ( 0.100000E-06)
 Charge distance                   (target) :  0.770211E-04  ( 0.100000E-04)
 Abs. change in max-nonIBS-force   (target) :   0.00000      ( 0.250000E-05)
 
++++++++++++++++++++++++++++++++++++++++++++++++++++++++++++++++++++++++++++++++
| SCF iteration number :    8                                                  +
++++++++++++++++++++++++++++++++++++++++++++++++++++++++++++++++++++++++++++++++
 Total energy                               :       -76.18380469
 _______________________________________________________________
 Fermi energy                               :         0.26905173
 Kinetic energy                             :        76.66226941
 Coulomb energy                             :      -141.87392473
 Exchange energy                            :       -10.53987173
 Correlation energy                         :        -0.43227765
 
 DOS at Fermi energy (states/Ha/cell)       :         0.78264849
 
 Electron charges :
     core                                   :         4.00000000
     core leakage                           :         0.00134034
     valence                                :         8.00000000
     interstitial                           :         4.40648869
     charge in muffin-tin spheres :
                  atom     1     C          :         3.79675566
                  atom     2     C          :         3.79675566
     total charge in muffin-tins            :         7.59351131
     total charge                           :        12.00000000
 
 Wall time (seconds)                        :       218.92
 
 RMS change in effective potential (target) :  0.292474E-04  ( 0.100000E-05)
 Absolute change in total energy   (target) :  0.171033E-02  ( 0.100000E-06)
 Charge distance                   (target) :  0.277017E-04  ( 0.100000E-04)
 Abs. change in max-nonIBS-force   (target) :   0.00000      ( 0.250000E-05)
 
++++++++++++++++++++++++++++++++++++++++++++++++++++++++++++++++++++++++++++++++
| SCF iteration number :    9                                                  +
++++++++++++++++++++++++++++++++++++++++++++++++++++++++++++++++++++++++++++++++
 Total energy                               :       -76.18368246
 _______________________________________________________________
 Fermi energy                               :         0.26905460
 Kinetic energy                             :        76.66234497
 Coulomb energy                             :      -141.87388367
 Exchange energy                            :       -10.53986596
 Correlation energy                         :        -0.43227781
 
 DOS at Fermi energy (states/Ha/cell)       :         0.78265440
 
 Electron charges :
     core                                   :         4.00000000
     core leakage                           :         0.00134034
     valence                                :         8.00000000
     interstitial                           :         4.40649785
     charge in muffin-tin spheres :
                  atom     1     C          :         3.79675108
                  atom     2     C          :         3.79675108
     total charge in muffin-tins            :         7.59350215
     total charge                           :        12.00000000
 
 Wall time (seconds)                        :       246.24
 
 RMS change in effective potential (target) :  0.201575E-05  ( 0.100000E-05)
 Absolute change in total energy   (target) :  0.122232E-03  ( 0.100000E-06)
 Charge distance                   (target) :  0.175142E-05  ( 0.100000E-04)
 Abs. change in max-nonIBS-force   (target) :   0.00000      ( 0.250000E-05)
 
++++++++++++++++++++++++++++++++++++++++++++++++++++++++++++++++++++++++++++++++
| SCF iteration number :   10                                                  +
++++++++++++++++++++++++++++++++++++++++++++++++++++++++++++++++++++++++++++++++
 Total energy                               :       -76.18368395
 _______________________________________________________________
 Fermi energy                               :         0.26905460
 Kinetic energy                             :        76.66234454
 Coulomb energy                             :      -141.87388463
 Exchange energy                            :       -10.53986605
 Correlation energy                         :        -0.43227780
 
 DOS at Fermi energy (states/Ha/cell)       :         0.78265437
 
 Electron charges :
     core                                   :         4.00000000
     core leakage                           :         0.00134034
     valence                                :         8.00000000
     interstitial                           :         4.40649773
     charge in muffin-tin spheres :
                  atom     1     C          :         3.79675113
                  atom     2     C          :         3.79675113
     total charge in muffin-tins            :         7.59350227
     total charge                           :        12.00000000
 
 Wall time (seconds)                        :       273.59
 
 RMS change in effective potential (target) :  0.350294E-07  ( 0.100000E-05)
 Absolute change in total energy   (target) :  0.148293E-05  ( 0.100000E-06)
 Charge distance                   (target) :  0.209521E-07  ( 0.100000E-04)
 Abs. change in max-nonIBS-force   (target) :   0.00000      ( 0.250000E-05)
 
++++++++++++++++++++++++++++++++++++++++++++++++++++++++++++++++++++++++++++++++
| SCF iteration number :   11                                                  +
++++++++++++++++++++++++++++++++++++++++++++++++++++++++++++++++++++++++++++++++
 Total energy                               :       -76.18368380
 _______________________________________________________________
 Fermi energy                               :         0.26905460
 Kinetic energy                             :        76.66234466
 Coulomb energy                             :      -141.87388461
 Exchange energy                            :       -10.53986605
 Correlation energy                         :        -0.43227780
 
 DOS at Fermi energy (states/Ha/cell)       :         0.78265439
 
 Electron charges :
     core                                   :         4.00000000
     core leakage                           :         0.00134034
     valence                                :         8.00000000
     interstitial                           :         4.40649774
     charge in muffin-tin spheres :
                  atom     1     C          :         3.79675113
                  atom     2     C          :         3.79675113
     total charge in muffin-tins            :         7.59350226
     total charge                           :        12.00000000
 
 Wall time (seconds)                        :       300.71
 
 RMS change in effective potential (target) :  0.320788E-08  ( 0.100000E-05)
 Absolute change in total energy   (target) :  0.141406E-06  ( 0.100000E-06)
 Charge distance                   (target) :  0.337966E-08  ( 0.100000E-04)
 Abs. change in max-nonIBS-force   (target) :   0.00000      ( 0.250000E-05)
 
++++++++++++++++++++++++++++++++++++++++++++++++++++++++++++++++++++++++++++++++
| SCF iteration number :   12                                                  +
++++++++++++++++++++++++++++++++++++++++++++++++++++++++++++++++++++++++++++++++
 Total energy                               :       -76.18368383
 _______________________________________________________________
 Fermi energy                               :         0.26905460
 Kinetic energy                             :        76.66234464
 Coulomb energy                             :      -141.87388462
 Exchange energy                            :       -10.53986605
 Correlation energy                         :        -0.43227780
 
 DOS at Fermi energy (states/Ha/cell)       :         0.78265438
 
 Electron charges :
     core                                   :         4.00000000
     core leakage                           :         0.00134034
     valence                                :         8.00000000
     interstitial                           :         4.40649774
     charge in muffin-tin spheres :
                  atom     1     C          :         3.79675113
                  atom     2     C          :         3.79675113
     total charge in muffin-tins            :         7.59350226
     total charge                           :        12.00000000
 
 Wall time (seconds)                        :       327.86
 
 RMS change in effective potential (target) :  0.862001E-08  ( 0.100000E-05)
 Absolute change in total energy   (target) :  0.245680E-07  ( 0.100000E-06)
 Charge distance                   (target) :  0.377428E-09  ( 0.100000E-04)
 Abs. change in max-nonIBS-force   (target) :   0.00000      ( 0.250000E-05)
 
++++++++++++++++++++++++++++++++++++++++++++++++++++++++++++++++++++++++++++++++
| Convergence targets achieved. Performing final SCF iteration                 +
++++++++++++++++++++++++++++++++++++++++++++++++++++++++++++++++++++++++++++++++
 Total energy                               :       -76.19295502
 _______________________________________________________________
 Fermi energy                               :         0.26905460
 Kinetic energy                             :        76.66234464
 Coulomb energy                             :      -141.87388462
 Exchange energy                            :       -10.53986605
 Correlation energy                         :        -0.43227780
 DFT-D2 dispersion correction               :        -0.00927120
 
 DOS at Fermi energy (states/Ha/cell)       :         0.78265438
 
 Electron charges :
     core                                   :         4.00000000
     core leakage                           :         0.00134034
     valence                                :         8.00000000
     interstitial                           :         4.40649774
     charge in muffin-tin spheres :
                  atom     1     C          :         3.79675113
                  atom     2     C          :         3.79675113
     total charge in muffin-tins            :         7.59350226
     total charge                           :        12.00000000
 
++++++++++++++++++++++++++++++++++++++++++++++++++++++++++++++++++++++++++++++++
| Self-consistent loop stopped                                                 +
++++++++++++++++++++++++++++++++++++++++++++++++++++++++++++++++++++++++++++++++
 STATE.OUT is written
 
--------------------------------------------------------------------------------
| Writing atomic positions and forces                                          -
--------------------------------------------------------------------------------
 
 Atomic positions (lattice) :
 atom     1   C  :     0.00000000    0.00000000    0.00000000
 atom     2   C  :     0.33333333    0.33333333    0.00000000
 
 Total atomic forces including IBS (cartesian) :
 atom     1   C  :     0.00000000    0.00000000    0.00000000
 atom     2   C  :     0.00000000    0.00000000    0.00000000
 
 Atomic force components including IBS (cartesian) :
 atom     1   C  :     0.00000000    0.00000000    0.00000000   HF force
                 :     0.00000000    0.00000000    0.00000000   core correction
                 :     0.00000000    0.00000000    0.00000000   IBS correction
                 :     0.00000000    0.00000000    0.00000000   DFT-D2 force
 atom     2   C  :     0.00000000    0.00000000    0.00000000   HF force
                 :     0.00000000    0.00000000    0.00000000   core correction
                 :     0.00000000    0.00000000    0.00000000   IBS correction
                 :     0.00000000    0.00000000    0.00000000   DFT-D2 force
 
********************************************************************************
| Groundstate module stopped                                                   *
********************************************************************************
 
********************************************************************************
| Structure-optimization module started                                        *
********************************************************************************
 Output level for this task is set to normal
 
 Maximum displacement tau_BFGS   is         :         0.3000
 Maximum displacement tau_newton is         :         0.8000
 Maximum force target reached already at the initial configuration
 
********************************************************************************
| Structure-optimization module stopped                                        *
********************************************************************************
 
 Total time spent (seconds)                 :       380.92
 
================================================================================
| EXCITING BORON stopped                                                       =
================================================================================
