
     Program PHONON v.6.8 starts on 20Dec2021 at 12:15:28

     This program is part of the open-source Quantum ESPRESSO suite
     for quantum simulation of materials; please cite
         "P. Giannozzi et al., J. Phys.:Condens. Matter 21 395502 (2009);
         "P. Giannozzi et al., J. Phys.:Condens. Matter 29 465901 (2017);
         "P. Giannozzi et al., J. Chem. Phys. 152 154105 (2020);
          URL http://www.quantum-espresso.org",
     in publications or presentations arising from this work. More details at
     http://www.quantum-espresso.org/quote

     Parallel version (MPI), running on    24 processors

     MPI processes distributed on     1 nodes
     K-points division:     npool     =       8
     R & G space division:  proc/nbgrp/npool/nimage =       3
     124273 MiB available memory on the printing compute node when the environment starts

     Reading input from WC-ph.in
      Title line not specified: using 'default'.

     Reading xml data from directory:

     ./WC.save/
     file C.pbe-n-kjpaw_psl.1.0.0.UPF: wavefunction(s)  2S 2P renormalized

     IMPORTANT: XC functional enforced from input :
     Exchange-correlation= PBE
                           (   1   4   3   4   0   0   0)
     Any further DFT definition will be discarded
     Please, verify this is what you really want


     Parallelization info
     --------------------
     sticks:   dense  smooth     PW     G-vecs:    dense   smooth      PW
     Min         308     153     50                 7382     2602     466
     Max         309     156     51                 7385     2603     469
     Sum         925     463    151                22151     7807    1401

     Using Slab Decomposition


     negative rho (up, down):  6.721E-02 0.000E+00
     Reading collected, re-writing distributed wavefunctions


     Dynamical matrices for ( 7, 7, 8)  uniform grid of q-points
     (  40 q-points):
       N         xq(1)         xq(2)         xq(3)
       1   0.000000000   0.000000000   0.000000000
       2   0.000000000   0.000000000   0.128277788
       3   0.000000000   0.000000000   0.256555576
       4   0.000000000   0.000000000   0.384833363
       5   0.000000000   0.000000000  -0.513111151
       6   0.000000000   0.164957220   0.000000000
       7   0.000000000   0.164957220   0.128277788
       8   0.000000000   0.164957220   0.256555576
       9   0.000000000   0.164957220   0.384833363
      10   0.000000000   0.164957220  -0.513111151
      11   0.000000000   0.329914439   0.000000000
      12   0.000000000   0.329914439   0.128277788
      13   0.000000000   0.329914439   0.256555576
      14   0.000000000   0.329914439   0.384833363
      15   0.000000000   0.329914439  -0.513111151
      16   0.000000000   0.494871659   0.000000000
      17   0.000000000   0.494871659   0.128277788
      18   0.000000000   0.494871659   0.256555576
      19   0.000000000   0.494871659   0.384833363
      20   0.000000000   0.494871659  -0.513111151
      21   0.142857143   0.247435830   0.000000000
      22   0.142857143   0.247435830   0.128277788
      23   0.142857143   0.247435830   0.256555576
      24   0.142857143   0.247435830   0.384833363
      25   0.142857143   0.247435830  -0.513111151
      26   0.142857143   0.412393049   0.000000000
      27   0.142857143   0.412393049   0.128277788
      28   0.142857143   0.412393049   0.256555576
      29   0.142857143   0.412393049   0.384833363
      30   0.142857143   0.412393049  -0.513111151
      31   0.142857143   0.577350269   0.000000000
      32   0.142857143   0.577350269   0.128277788
      33   0.142857143   0.577350269   0.256555576
      34   0.142857143   0.577350269   0.384833363
      35   0.142857143   0.577350269  -0.513111151
      36   0.285714286   0.494871659   0.000000000
      37   0.285714286   0.494871659   0.128277788
      38   0.285714286   0.494871659   0.256555576
      39   0.285714286   0.494871659   0.384833363
      40   0.285714286   0.494871659  -0.513111151

     Calculation of q =    0.0000000   0.0000000   0.0000000

     default

     bravais-lattice index     =            0
     lattice parameter (alat)  =       5.5247  a.u.
     unit-cell volume          =     142.3047 (a.u.)^3
     number of atoms/cell      =            2
     number of atomic types    =            2
     kinetic-energy cut-off    =      55.0000  Ry
     charge density cut-off    =     440.0000  Ry
     convergence threshold     =      5.0E-15
     beta                      =       0.7000
     number of iterations used =            4
     Exchange-correlation= PBE
                           (   1   4   3   4   0   0   0)


     celldm(1)=    5.52472  celldm(2)=    0.00000  celldm(3)=    0.00000
     celldm(4)=    0.00000  celldm(5)=    0.00000  celldm(6)=    0.00000

     crystal axes: (cart. coord. in units of alat)
               a(1) = (  1.0000  0.0000  0.0000 )
               a(2) = ( -0.5000  0.8660  0.0000 )
               a(3) = (  0.0000  0.0000  0.9744 )

     reciprocal axes: (cart. coord. in units 2 pi/alat)
               b(1) = (  1.0000  0.5774  0.0000 )
               b(2) = (  0.0000  1.1547  0.0000 )
               b(3) = (  0.0000  0.0000  1.0262 )


     Atoms inside the unit cell:

     Cartesian axes

     site n.  atom      mass           positions (alat units)
        1     W  183.8400   tau(    1) = (    0.00000    0.00000    0.00000  )
        2     C   12.0110   tau(    2) = (    0.50000    0.28868    0.48722  )

     Computing dynamical matrix for
                    q = (   0.0000000   0.0000000   0.0000000 )

     13 Sym.Ops. (with q -> -q+G )


     G cutoff =  340.1833  (   7385 G-vectors)     FFT grid: ( 40, 40, 36)
     G cutoff =  170.0917  (   2602 G-vectors)  smooth grid: ( 27, 27, 25)

     number of k points=   484  Methfessel-Paxton smearing, width (Ry)=  0.0019

     PseudoPot. # 1 for W  read from file:
     /home/sl119982/WBC-phase-stability/SSSP_1.1.2_PBE_precision/W_pbe_v1.2.uspp.F.UPF
     MD5 check sum: 9c083fa34c2a2ea0f02f1f893e16e1c8
     Pseudo is Ultrasoft + core correction, Zval = 14.0
     Generated by new atomic code, or converted to UPF format
     Using radial grid of  923 points,  8 beta functions with:
                l(1) =   0
                l(2) =   0
                l(3) =   0
                l(4) =   1
                l(5) =   1
                l(6) =   2
                l(7) =   2
                l(8) =   3
     Q(r) pseudized with  6 coefficients,  rinner =    1.350   1.350   1.350
                                                       1.350   1.350   1.350
                                                       1.350

     PseudoPot. # 2 for C  read from file:
     /home/sl119982/WBC-phase-stability/SSSP_1.1.2_PBE_precision/C.pbe-n-kjpaw_psl.1.0.0.UPF
     MD5 check sum: 5d2aebdfa2cae82b50a7e79e9516da0f
     Pseudo is Projector augmented-wave + core cor, Zval =  4.0
     Generated using "atomic" code by A. Dal Corso  v.5.1
     Shape of augmentation charge: PSQ
     Using radial grid of 1073 points,  4 beta functions with:
                l(1) =   0
                l(2) =   0
                l(3) =   1
                l(4) =   1
     Q(r) pseudized with 0 coefficients


     Mode symmetry, D_3h (-62m) point group:


     Atomic displacements:
     There are    4 irreducible representations

     Representation     1      2 modes -  To be done

     Representation     2      2 modes -  To be done

     Representation     3      1 modes -  To be done

     Representation     4      1 modes -  To be done



     Alpha used in Ewald sum =   2.8000

     negative rho (up, down):  6.721E-02 0.000E+00
     PHONON       :      3.32s CPU      5.79s WALL



     Representation #   1 modes #   1   2

     Self-consistent Calculation

     Pert. #  1: Fermi energy shift (Ry) =     9.9385E-20     1.8808E-36
     Pert. #  2: Fermi energy shift (Ry) =     8.4568E-18    -2.0062E-36

      iter #   1 total cpu time :    10.7 secs   av.it.:   6.3
      thresh= 1.000E-02 alpha_mix =  0.700 |ddv_scf|^2 =  4.081E-07

     Pert. #  1: Fermi energy shift (Ry) =     3.4333E-19    -3.9183E-39
     Pert. #  2: Fermi energy shift (Ry) =     3.3249E-18     1.9592E-39

      iter #   2 total cpu time :    18.1 secs   av.it.:  14.6
      thresh= 6.388E-05 alpha_mix =  0.700 |ddv_scf|^2 =  1.700E-08

     Pert. #  1: Fermi energy shift (Ry) =    -2.8912E-19    -6.7346E-40
     Pert. #  2: Fermi energy shift (Ry) =     2.0961E-18    -1.2245E-40

      iter #   3 total cpu time :    24.9 secs   av.it.:  14.5
      thresh= 1.304E-05 alpha_mix =  0.700 |ddv_scf|^2 =  6.882E-10

     Pert. #  1: Fermi energy shift (Ry) =     4.3820E-18     2.7551E-40
     Pert. #  2: Fermi energy shift (Ry) =     3.0358E-18     3.0612E-40

      iter #   4 total cpu time :    31.2 secs   av.it.:  13.6
      thresh= 2.623E-06 alpha_mix =  0.700 |ddv_scf|^2 =  1.438E-11

     Pert. #  1: Fermi energy shift (Ry) =     1.5540E-18    -1.9132E-41
     Pert. #  2: Fermi energy shift (Ry) =     1.3733E-18     3.0612E-41

      iter #   5 total cpu time :    37.7 secs   av.it.:  14.0
      thresh= 3.792E-07 alpha_mix =  0.700 |ddv_scf|^2 =  5.602E-13

     Pert. #  1: Fermi energy shift (Ry) =    -9.0350E-20    -2.4872E-41
     Pert. #  2: Fermi energy shift (Ry) =     2.5298E-18     3.0612E-41

      iter #   6 total cpu time :    44.7 secs   av.it.:  13.3
      thresh= 7.485E-08 alpha_mix =  0.700 |ddv_scf|^2 =  8.806E-15

     Pert. #  1: Fermi energy shift (Ry) =     3.1984E-18    -9.5662E-42
     Pert. #  2: Fermi energy shift (Ry) =     1.4456E-18     1.5306E-41

      iter #   7 total cpu time :    50.8 secs   av.it.:  13.2
      thresh= 9.384E-09 alpha_mix =  0.700 |ddv_scf|^2 =  8.692E-18

     End of self-consistent calculation

     Convergence has been achieved


     Representation #   2 modes #   3   4

     Self-consistent Calculation

     Pert. #  1: Fermi energy shift (Ry) =    -1.5540E-18     1.7554E-36
     Pert. #  2: Fermi energy shift (Ry) =    -8.6736E-19    -1.0031E-36

      iter #   1 total cpu time :    56.2 secs   av.it.:   9.0
      thresh= 1.000E-02 alpha_mix =  0.700 |ddv_scf|^2 =  3.987E-06

     Pert. #  1: Fermi energy shift (Ry) =    -5.6017E-19     3.9183E-38
     Pert. #  2: Fermi energy shift (Ry) =     3.9754E-19     3.9183E-39

      iter #   2 total cpu time :    62.8 secs   av.it.:  14.4
      thresh= 1.997E-04 alpha_mix =  0.700 |ddv_scf|^2 =  1.500E-07

     Pert. #  1: Fermi energy shift (Ry) =     6.3245E-19     3.6734E-40
     Pert. #  2: Fermi energy shift (Ry) =     1.7347E-18    -6.1224E-40

      iter #   3 total cpu time :    69.6 secs   av.it.:  14.6
      thresh= 3.873E-05 alpha_mix =  0.700 |ddv_scf|^2 =  1.688E-09

     Pert. #  1: Fermi energy shift (Ry) =     2.6653E-18    -2.1428E-40
     Pert. #  2: Fermi energy shift (Ry) =     1.0119E-18     1.2245E-40

      iter #   4 total cpu time :    76.7 secs   av.it.:  14.7
      thresh= 4.109E-06 alpha_mix =  0.700 |ddv_scf|^2 =  1.684E-11

     Pert. #  1: Fermi energy shift (Ry) =     1.7076E-18    -1.9898E-40
     Pert. #  2: Fermi energy shift (Ry) =     6.5052E-19    -4.5918E-41

      iter #   5 total cpu time :    83.4 secs   av.it.:  14.8
      thresh= 4.104E-07 alpha_mix =  0.700 |ddv_scf|^2 =  5.746E-13

     Pert. #  1: Fermi energy shift (Ry) =     5.6921E-19    -1.9898E-40
     Pert. #  2: Fermi energy shift (Ry) =     2.3130E-18    -4.5918E-41

      iter #   6 total cpu time :    90.0 secs   av.it.:  14.2
      thresh= 7.580E-08 alpha_mix =  0.700 |ddv_scf|^2 =  9.318E-15

     Pert. #  1: Fermi energy shift (Ry) =    -7.9508E-19    -1.9898E-40
     Pert. #  2: Fermi energy shift (Ry) =     7.2280E-19    -4.5918E-41

      iter #   7 total cpu time :    96.3 secs   av.it.:  13.5
      thresh= 9.653E-09 alpha_mix =  0.700 |ddv_scf|^2 =  3.264E-16

     End of self-consistent calculation

     Convergence has been achieved


     Representation #   3 mode #   5

     Self-consistent Calculation

     Pert. #  1: Fermi energy shift (Ry) =    -7.2280E-20     2.5077E-37

      iter #   1 total cpu time :    99.3 secs   av.it.:   8.5
      thresh= 1.000E-02 alpha_mix =  0.700 |ddv_scf|^2 =  2.652E-05

     Pert. #  1: Fermi energy shift (Ry) =     7.2280E-20     1.5673E-38

      iter #   2 total cpu time :   102.4 secs   av.it.:  12.6
      thresh= 5.150E-04 alpha_mix =  0.700 |ddv_scf|^2 =  2.740E-06

     Pert. #  1: Fermi energy shift (Ry) =    -1.4456E-19     9.7958E-40

      iter #   3 total cpu time :   105.6 secs   av.it.:  12.6
      thresh= 1.655E-04 alpha_mix =  0.700 |ddv_scf|^2 =  8.377E-09

     Pert. #  1: Fermi energy shift (Ry) =     1.4456E-19    -1.2245E-40

      iter #   4 total cpu time :   108.8 secs   av.it.:  13.0
      thresh= 9.153E-06 alpha_mix =  0.700 |ddv_scf|^2 =  5.187E-11

     Pert. #  1: Fermi energy shift (Ry) =     1.4456E-19     1.4947E-44

      iter #   5 total cpu time :   112.2 secs   av.it.:  12.8
      thresh= 7.202E-07 alpha_mix =  0.700 |ddv_scf|^2 =  1.190E-12

     Pert. #  1: Fermi energy shift (Ry) =    -1.4456E-19    -7.6530E-42

      iter #   6 total cpu time :   115.3 secs   av.it.:  12.3
      thresh= 1.091E-07 alpha_mix =  0.700 |ddv_scf|^2 =  1.338E-14

     Pert. #  1: Fermi energy shift (Ry) =    -1.4456E-19    -7.6530E-42

      iter #   7 total cpu time :   118.4 secs   av.it.:  12.4
      thresh= 1.157E-08 alpha_mix =  0.700 |ddv_scf|^2 =  1.656E-16

     End of self-consistent calculation

     Convergence has been achieved


     Representation #   4 mode #   6

     Self-consistent Calculation

     Pert. #  1: Fermi energy shift (Ry) =     1.4456E-19     2.5077E-37

      iter #   1 total cpu time :   120.8 secs   av.it.:   6.4
      thresh= 1.000E-02 alpha_mix =  0.700 |ddv_scf|^2 =  2.780E-06

     Pert. #  1: Fermi energy shift (Ry) =     1.4456E-19     3.9183E-39

      iter #   2 total cpu time :   123.9 secs   av.it.:  12.4
      thresh= 1.667E-04 alpha_mix =  0.700 |ddv_scf|^2 =  2.746E-07

     Pert. #  1: Fermi energy shift (Ry) =     1.4456E-19    -9.7958E-40

      iter #   3 total cpu time :   127.0 secs   av.it.:  12.5
      thresh= 5.241E-05 alpha_mix =  0.700 |ddv_scf|^2 =  3.758E-09

     Pert. #  1: Fermi energy shift (Ry) =    -1.4456E-19     1.5306E-41

      iter #   4 total cpu time :   129.8 secs   av.it.:  11.5
      thresh= 6.130E-06 alpha_mix =  0.700 |ddv_scf|^2 =  9.240E-11

     Pert. #  1: Fermi energy shift (Ry) =     1.4456E-19    -3.0612E-41

      iter #   5 total cpu time :   132.7 secs   av.it.:  11.1
      thresh= 9.613E-07 alpha_mix =  0.700 |ddv_scf|^2 =  1.960E-12

     Pert. #  1: Fermi energy shift (Ry) =    -1.4456E-19     3.8265E-42

      iter #   6 total cpu time :   135.3 secs   av.it.:  10.5
      thresh= 1.400E-07 alpha_mix =  0.700 |ddv_scf|^2 =  2.054E-16

     End of self-consistent calculation

     Convergence has been achieved

     Number of q in the star =    1
     List of q in the star:
          1   0.000000000   0.000000000   0.000000000

     Diagonalizing the dynamical matrix

     q = (    0.000000000   0.000000000   0.000000000 )

 **************************************************************************
     freq (    1) =      -0.395938 [THz] =     -13.207085 [cm-1]
     freq (    2) =       0.064425 [THz] =       2.148974 [cm-1]
     freq (    3) =       0.064425 [THz] =       2.148974 [cm-1]
     freq (    4) =      16.967295 [THz] =     565.968026 [cm-1]
     freq (    5) =      17.706481 [THz] =     590.624643 [cm-1]
     freq (    6) =      17.706481 [THz] =     590.624643 [cm-1]
 **************************************************************************

     Mode symmetry, D_3h (-62m) point group:

     freq (   1-   1) =        -13.2  [cm-1]   --> A''2            I
     freq (   2-   3) =          2.1  [cm-1]   --> E'              I+R
     freq (   4-   4) =        566.0  [cm-1]   --> A''2            I
     freq (   5-   6) =        590.6  [cm-1]   --> E'              I+R

     Calculation of q =    0.0000000   0.0000000   0.1282778

     Subspace diagonalization in iterative solution of the eigenvalue problem:
     a serial algorithm will be used


     Parallelization info
     --------------------
     sticks:   dense  smooth     PW     G-vecs:    dense   smooth      PW
     Min         308     153     50                 7382     2602     486
     Max         309     156     51                 7385     2603     489
     Sum         925     463    151                22151     7807    1461

     Using Slab Decomposition


     Title:
     default


     bravais-lattice index     =            0
     lattice parameter (alat)  =       5.5247  a.u.
     unit-cell volume          =     142.3047 (a.u.)^3
     number of atoms/cell      =            2
     number of atomic types    =            2
     number of electrons       =        18.00
     number of Kohn-Sham states=           13
     kinetic-energy cutoff     =      55.0000  Ry
     charge density cutoff     =     440.0000  Ry
     Exchange-correlation= PBE
                           (   1   4   3   4   0   0   0)

     celldm(1)=   5.524717  celldm(2)=   0.000000  celldm(3)=   0.000000
     celldm(4)=   0.000000  celldm(5)=   0.000000  celldm(6)=   0.000000

     crystal axes: (cart. coord. in units of alat)
               a(1) = (   1.000000   0.000000   0.000000 )
               a(2) = (  -0.500000   0.866025   0.000000 )
               a(3) = (   0.000000   0.000000   0.974448 )

     reciprocal axes: (cart. coord. in units 2 pi/alat)
               b(1) = (  1.000000  0.577350  0.000000 )
               b(2) = (  0.000000  1.154701  0.000000 )
               b(3) = (  0.000000  0.000000  1.026222 )


     PseudoPot. # 1 for W  read from file:
     /home/sl119982/WBC-phase-stability/SSSP_1.1.2_PBE_precision/W_pbe_v1.2.uspp.F.UPF
     MD5 check sum: 9c083fa34c2a2ea0f02f1f893e16e1c8
     Pseudo is Ultrasoft + core correction, Zval = 14.0
     Generated by new atomic code, or converted to UPF format
     Using radial grid of  923 points,  8 beta functions with:
                l(1) =   0
                l(2) =   0
                l(3) =   0
                l(4) =   1
                l(5) =   1
                l(6) =   2
                l(7) =   2
                l(8) =   3
     Q(r) pseudized with  6 coefficients,  rinner =    1.350   1.350   1.350
                                                       1.350   1.350   1.350
                                                       1.350

     PseudoPot. # 2 for C  read from file:
     /home/sl119982/WBC-phase-stability/SSSP_1.1.2_PBE_precision/C.pbe-n-kjpaw_psl.1.0.0.UPF
     MD5 check sum: 5d2aebdfa2cae82b50a7e79e9516da0f
     Pseudo is Projector augmented-wave + core cor, Zval =  4.0
     Generated using "atomic" code by A. Dal Corso  v.5.1
     Shape of augmentation charge: PSQ
     Using radial grid of 1073 points,  4 beta functions with:
                l(1) =   0
                l(2) =   0
                l(3) =   1
                l(4) =   1
     Q(r) pseudized with 0 coefficients


     atomic species   valence    mass     pseudopotential
        W             14.00   183.84000     W ( 1.00)
        C              4.00    12.01100     C ( 1.00)

     12 Sym. Ops. (no inversion) found



   Cartesian axes

     site n.     atom                  positions (alat units)
         1           W   tau(   1) = (   0.0000000   0.0000000   0.0000000  )
         2           C   tau(   2) = (   0.5000000   0.2886751   0.4872239  )

     number of k points=  3234  Methfessel-Paxton smearing, width (Ry)=  0.0019

     Number of k-points >= 100: set verbosity='high' to print them.

     Dense  grid:    22151 G-vectors     FFT dimensions: (  40,  40,  36)

     Smooth grid:     7807 G-vectors     FFT dimensions: (  27,  27,  25)

     Estimated max dynamical RAM per process >      16.36 MB

     Estimated total dynamical RAM >     392.57 MB

     The potential is recalculated from file :
     ./_ph0/WC.save/charge-density


     negative rho (up, down):  6.721E-02 0.000E+00
     Starting wfcs are   17 atomic wfcs
     Checking if some PAW data can be deallocated...

     Band Structure Calculation
     Davidson diagonalization with overlap

     ethr =  5.56E-11,  avg # of iterations = 12.6

     total cpu time spent up to now is       23.8 secs

     End of band structure calculation

     Number of k-points >= 100: set verbosity='high' to print the bands.

     the Fermi energy is    20.2697 ev

     Writing output data file ./_ph0/WC.save/

     default

     bravais-lattice index     =            0
     lattice parameter (alat)  =       5.5247  a.u.
     unit-cell volume          =     142.3047 (a.u.)^3
     number of atoms/cell      =            2
     number of atomic types    =            2
     kinetic-energy cut-off    =      55.0000  Ry
     charge density cut-off    =     440.0000  Ry
     convergence threshold     =      5.0E-15
     beta                      =       0.7000
     number of iterations used =            4
     Exchange-correlation= PBE
                           (   1   4   3   4   0   0   0)


     celldm(1)=    5.52472  celldm(2)=    0.00000  celldm(3)=    0.00000
     celldm(4)=    0.00000  celldm(5)=    0.00000  celldm(6)=    0.00000

     crystal axes: (cart. coord. in units of alat)
               a(1) = (  1.0000  0.0000  0.0000 )
               a(2) = ( -0.5000  0.8660  0.0000 )
               a(3) = (  0.0000  0.0000  0.9744 )

     reciprocal axes: (cart. coord. in units 2 pi/alat)
               b(1) = (  1.0000  0.5774  0.0000 )
               b(2) = (  0.0000  1.1547  0.0000 )
               b(3) = (  0.0000  0.0000  1.0262 )


     Atoms inside the unit cell:

     Cartesian axes

     site n.  atom      mass           positions (alat units)
        1     W  183.8400   tau(    1) = (    0.00000    0.00000    0.00000  )
        2     C   12.0110   tau(    2) = (    0.50000    0.28868    0.48722  )

     Computing dynamical matrix for
                    q = (   0.0000000   0.0000000   0.1282778 )

      6 Sym.Ops. (no q -> -q+G )


     G cutoff =  340.1833  (   7385 G-vectors)     FFT grid: ( 40, 40, 36)
     G cutoff =  170.0917  (   2602 G-vectors)  smooth grid: ( 27, 27, 25)

     number of k points=  3234  Methfessel-Paxton smearing, width (Ry)=  0.0019

     PseudoPot. # 1 for W  read from file:
     /home/sl119982/WBC-phase-stability/SSSP_1.1.2_PBE_precision/W_pbe_v1.2.uspp.F.UPF
     MD5 check sum: 9c083fa34c2a2ea0f02f1f893e16e1c8
     Pseudo is Ultrasoft + core correction, Zval = 14.0
     Generated by new atomic code, or converted to UPF format
     Using radial grid of  923 points,  8 beta functions with:
                l(1) =   0
                l(2) =   0
                l(3) =   0
                l(4) =   1
                l(5) =   1
                l(6) =   2
                l(7) =   2
                l(8) =   3
     Q(r) pseudized with  6 coefficients,  rinner =    1.350   1.350   1.350
                                                       1.350   1.350   1.350
                                                       1.350

     PseudoPot. # 2 for C  read from file:
     /home/sl119982/WBC-phase-stability/SSSP_1.1.2_PBE_precision/C.pbe-n-kjpaw_psl.1.0.0.UPF
     MD5 check sum: 5d2aebdfa2cae82b50a7e79e9516da0f
     Pseudo is Projector augmented-wave + core cor, Zval =  4.0
     Generated using "atomic" code by A. Dal Corso  v.5.1
     Shape of augmentation charge: PSQ
     Using radial grid of 1073 points,  4 beta functions with:
                l(1) =   0
                l(2) =   0
                l(3) =   1
                l(4) =   1
     Q(r) pseudized with 0 coefficients


     Mode symmetry, C_3v (3m)   point group:


     Atomic displacements:
     There are    4 irreducible representations

     Representation     1      1 modes -  To be done

     Representation     2      1 modes -  To be done

     Representation     3      2 modes -  To be done

     Representation     4      2 modes -  To be done



     Alpha used in Ewald sum =   2.8000

     negative rho (up, down):  6.721E-02 0.000E+00
     PHONON       :   2m29.71s CPU   2m47.17s WALL



     Representation #   1 mode #   1

     Self-consistent Calculation

      iter #   1 total cpu time :   176.2 secs   av.it.:  11.0
      thresh= 1.000E-02 alpha_mix =  0.700 |ddv_scf|^2 =  4.053E+00

      iter #   2 total cpu time :   187.3 secs   av.it.:  14.9
      thresh= 1.000E-02 alpha_mix =  0.700 |ddv_scf|^2 =  6.870E+03

      iter #   3 total cpu time :   198.2 secs   av.it.:  14.9
      thresh= 1.000E-02 alpha_mix =  0.700 |ddv_scf|^2 =  1.987E-01

      iter #   4 total cpu time :   207.2 secs   av.it.:   9.6
      thresh= 1.000E-02 alpha_mix =  0.700 |ddv_scf|^2 =  1.699E-02

      iter #   5 total cpu time :   214.3 secs   av.it.:   8.7
      thresh= 1.000E-02 alpha_mix =  0.700 |ddv_scf|^2 =  9.339E-04

      iter #   6 total cpu time :   221.1 secs   av.it.:   7.9
      thresh= 3.056E-03 alpha_mix =  0.700 |ddv_scf|^2 =  1.068E-06

      iter #   7 total cpu time :   229.6 secs   av.it.:  10.8
      thresh= 1.033E-04 alpha_mix =  0.700 |ddv_scf|^2 =  1.966E-08

      iter #   8 total cpu time :   238.3 secs   av.it.:  10.6
      thresh= 1.402E-05 alpha_mix =  0.700 |ddv_scf|^2 =  2.195E-07

      iter #   9 total cpu time :   243.1 secs   av.it.:   4.7
      thresh= 4.685E-05 alpha_mix =  0.700 |ddv_scf|^2 =  1.681E-09

      iter #  10 total cpu time :   250.1 secs   av.it.:   8.5
      thresh= 4.100E-06 alpha_mix =  0.700 |ddv_scf|^2 =  4.949E-12

      iter #  11 total cpu time :   258.3 secs   av.it.:  10.4
      thresh= 2.225E-07 alpha_mix =  0.700 |ddv_scf|^2 =  2.451E-12

      iter #  12 total cpu time :   265.4 secs   av.it.:   8.9
      thresh= 1.565E-07 alpha_mix =  0.700 |ddv_scf|^2 =  1.226E-12

      iter #  13 total cpu time :   272.6 secs   av.it.:   8.0
      thresh= 1.107E-07 alpha_mix =  0.700 |ddv_scf|^2 =  1.055E-14

      iter #  14 total cpu time :   280.5 secs   av.it.:  10.0
      thresh= 1.027E-08 alpha_mix =  0.700 |ddv_scf|^2 =  5.097E-15

      iter #  15 total cpu time :   287.3 secs   av.it.:   8.5
      thresh= 7.139E-09 alpha_mix =  0.700 |ddv_scf|^2 =  3.408E-17

     End of self-consistent calculation

     Convergence has been achieved


     Representation #   2 mode #   2

     Self-consistent Calculation

      iter #   1 total cpu time :   294.8 secs   av.it.:   8.1
      thresh= 1.000E-02 alpha_mix =  0.700 |ddv_scf|^2 =  3.675E-01

      iter #   2 total cpu time :   305.1 secs   av.it.:  13.6
      thresh= 1.000E-02 alpha_mix =  0.700 |ddv_scf|^2 =  6.254E+02

      iter #   3 total cpu time :   315.8 secs   av.it.:  13.5
      thresh= 1.000E-02 alpha_mix =  0.700 |ddv_scf|^2 =  7.784E-03

      iter #   4 total cpu time :   321.9 secs   av.it.:   6.5
      thresh= 8.823E-03 alpha_mix =  0.700 |ddv_scf|^2 =  4.755E-04

      iter #   5 total cpu time :   328.6 secs   av.it.:   8.1
      thresh= 2.181E-03 alpha_mix =  0.700 |ddv_scf|^2 =  2.206E-05

      iter #   6 total cpu time :   335.7 secs   av.it.:   8.4
      thresh= 4.697E-04 alpha_mix =  0.700 |ddv_scf|^2 =  5.400E-08

      iter #   7 total cpu time :   344.5 secs   av.it.:  11.1
      thresh= 2.324E-05 alpha_mix =  0.700 |ddv_scf|^2 =  1.073E-10

      iter #   8 total cpu time :   353.7 secs   av.it.:  12.1
      thresh= 1.036E-06 alpha_mix =  0.700 |ddv_scf|^2 =  1.131E-10

      iter #   9 total cpu time :   361.6 secs   av.it.:   9.8
      thresh= 1.064E-06 alpha_mix =  0.700 |ddv_scf|^2 =  3.479E-09

      iter #  10 total cpu time :   367.6 secs   av.it.:   6.9
      thresh= 5.898E-06 alpha_mix =  0.700 |ddv_scf|^2 =  2.864E-11

      iter #  11 total cpu time :   374.7 secs   av.it.:   8.7
      thresh= 5.351E-07 alpha_mix =  0.700 |ddv_scf|^2 =  1.243E-11

      iter #  12 total cpu time :   380.9 secs   av.it.:   7.2
      thresh= 3.525E-07 alpha_mix =  0.700 |ddv_scf|^2 =  1.531E-13

      iter #  13 total cpu time :   388.2 secs   av.it.:   9.0
      thresh= 3.913E-08 alpha_mix =  0.700 |ddv_scf|^2 =  4.022E-15

     End of self-consistent calculation

     Convergence has been achieved


     Representation #   3 modes #   3   4

     Self-consistent Calculation

      iter #   1 total cpu time :   400.5 secs   av.it.:   6.4
      thresh= 1.000E-02 alpha_mix =  0.700 |ddv_scf|^2 =  3.913E-07

      iter #   2 total cpu time :   423.2 secs   av.it.:  14.9
      thresh= 6.255E-05 alpha_mix =  0.700 |ddv_scf|^2 =  1.505E-08

      iter #   3 total cpu time :   444.5 secs   av.it.:  14.8
      thresh= 1.227E-05 alpha_mix =  0.700 |ddv_scf|^2 =  6.636E-10

      iter #   4 total cpu time :   464.9 secs   av.it.:  13.9
      thresh= 2.576E-06 alpha_mix =  0.700 |ddv_scf|^2 =  1.362E-11

      iter #   5 total cpu time :   485.4 secs   av.it.:  14.2
      thresh= 3.691E-07 alpha_mix =  0.700 |ddv_scf|^2 =  5.337E-13

      iter #   6 total cpu time :   505.4 secs   av.it.:  13.6
      thresh= 7.305E-08 alpha_mix =  0.700 |ddv_scf|^2 =  7.814E-15

      iter #   7 total cpu time :   525.1 secs   av.it.:  13.6
      thresh= 8.840E-09 alpha_mix =  0.700 |ddv_scf|^2 =  8.496E-18

     End of self-consistent calculation

     Convergence has been achieved


     Representation #   4 modes #   5   6

     Self-consistent Calculation

      iter #   1 total cpu time :   540.8 secs   av.it.:   9.1
      thresh= 1.000E-02 alpha_mix =  0.700 |ddv_scf|^2 =  3.844E-06

      iter #   2 total cpu time :   563.5 secs   av.it.:  14.7
      thresh= 1.961E-04 alpha_mix =  0.700 |ddv_scf|^2 =  1.342E-07

      iter #   3 total cpu time :   584.9 secs   av.it.:  14.9
      thresh= 3.663E-05 alpha_mix =  0.700 |ddv_scf|^2 =  1.593E-09

      iter #   4 total cpu time :   606.6 secs   av.it.:  15.0
      thresh= 3.991E-06 alpha_mix =  0.700 |ddv_scf|^2 =  1.496E-11

      iter #   5 total cpu time :   628.3 secs   av.it.:  15.1
      thresh= 3.868E-07 alpha_mix =  0.700 |ddv_scf|^2 =  5.518E-13

      iter #   6 total cpu time :   649.3 secs   av.it.:  14.7
      thresh= 7.428E-08 alpha_mix =  0.700 |ddv_scf|^2 =  8.510E-15

      iter #   7 total cpu time :   670.0 secs   av.it.:  14.0
      thresh= 9.225E-09 alpha_mix =  0.700 |ddv_scf|^2 =  3.005E-16

     End of self-consistent calculation

     Convergence has been achieved

     Number of q in the star =    2
     List of q in the star:
          1   0.000000000   0.000000000   0.128277788
          2   0.000000000   0.000000000  -0.128277788

     Diagonalizing the dynamical matrix

     q = (    0.000000000   0.000000000   0.128277788 )

 **************************************************************************
     freq (    1) =       1.851908 [THz] =      61.773016 [cm-1]
     freq (    2) =       1.851908 [THz] =      61.773016 [cm-1]
     freq (    3) =       3.236048 [THz] =     107.942936 [cm-1]
     freq (    4) =      17.484691 [THz] =     583.226513 [cm-1]
     freq (    5) =      17.484691 [THz] =     583.226513 [cm-1]
     freq (    6) =      18.671673 [THz] =     622.819954 [cm-1]
 **************************************************************************

     Mode symmetry, C_3v (3m)   point group:

     freq (   1-   2) =         61.8  [cm-1]   --> E    L_3
     freq (   3-   3) =        107.9  [cm-1]   --> A_1  L_1
     freq (   4-   5) =        583.2  [cm-1]   --> E    L_3
     freq (   6-   6) =        622.8  [cm-1]   --> A_1  L_1

     Calculation of q =    0.0000000   0.0000000   0.2565556

     Parallelization info
     --------------------
     sticks:   dense  smooth     PW     G-vecs:    dense   smooth      PW
     Min         308     153     50                 7383     2602     506
     Max         309     156     51                 7384     2603     509
     Sum         925     463    151                22151     7807    1521

     Using Slab Decomposition


     Title:
     default


     bravais-lattice index     =            0
     lattice parameter (alat)  =       5.5247  a.u.
     unit-cell volume          =     142.3047 (a.u.)^3
     number of atoms/cell      =            2
     number of atomic types    =            2
     number of electrons       =        18.00
     number of Kohn-Sham states=           13
     kinetic-energy cutoff     =      55.0000  Ry
     charge density cutoff     =     440.0000  Ry
     Exchange-correlation= PBE
                           (   1   4   3   4   0   0   0)

     celldm(1)=   5.524717  celldm(2)=   0.000000  celldm(3)=   0.000000
     celldm(4)=   0.000000  celldm(5)=   0.000000  celldm(6)=   0.000000

     crystal axes: (cart. coord. in units of alat)
               a(1) = (   1.000000   0.000000   0.000000 )
               a(2) = (  -0.500000   0.866025   0.000000 )
               a(3) = (   0.000000   0.000000   0.974448 )

     reciprocal axes: (cart. coord. in units 2 pi/alat)
               b(1) = (  1.000000  0.577350  0.000000 )
               b(2) = (  0.000000  1.154701  0.000000 )
               b(3) = (  0.000000  0.000000  1.026222 )


     PseudoPot. # 1 for W  read from file:
     /home/sl119982/WBC-phase-stability/SSSP_1.1.2_PBE_precision/W_pbe_v1.2.uspp.F.UPF
     MD5 check sum: 9c083fa34c2a2ea0f02f1f893e16e1c8
     Pseudo is Ultrasoft + core correction, Zval = 14.0
     Generated by new atomic code, or converted to UPF format
     Using radial grid of  923 points,  8 beta functions with:
                l(1) =   0
                l(2) =   0
                l(3) =   0
                l(4) =   1
                l(5) =   1
                l(6) =   2
                l(7) =   2
                l(8) =   3
     Q(r) pseudized with  6 coefficients,  rinner =    1.350   1.350   1.350
                                                       1.350   1.350   1.350
                                                       1.350

     PseudoPot. # 2 for C  read from file:
     /home/sl119982/WBC-phase-stability/SSSP_1.1.2_PBE_precision/C.pbe-n-kjpaw_psl.1.0.0.UPF
     MD5 check sum: 5d2aebdfa2cae82b50a7e79e9516da0f
     Pseudo is Projector augmented-wave + core cor, Zval =  4.0
     Generated using "atomic" code by A. Dal Corso  v.5.1
     Shape of augmentation charge: PSQ
     Using radial grid of 1073 points,  4 beta functions with:
                l(1) =   0
                l(2) =   0
                l(3) =   1
                l(4) =   1
     Q(r) pseudized with 0 coefficients


     atomic species   valence    mass     pseudopotential
        W             14.00   183.84000     W ( 1.00)
        C              4.00    12.01100     C ( 1.00)

     12 Sym. Ops. (no inversion) found



   Cartesian axes

     site n.     atom                  positions (alat units)
         1           W   tau(   1) = (   0.0000000   0.0000000   0.0000000  )
         2           C   tau(   2) = (   0.5000000   0.2886751   0.4872239  )

     number of k points=  3234  Methfessel-Paxton smearing, width (Ry)=  0.0019

     Number of k-points >= 100: set verbosity='high' to print them.

     Dense  grid:    22151 G-vectors     FFT dimensions: (  40,  40,  36)

     Smooth grid:     7807 G-vectors     FFT dimensions: (  27,  27,  25)

     Estimated max dynamical RAM per process >      16.41 MB

     Estimated total dynamical RAM >     393.83 MB

     The potential is recalculated from file :
     ./_ph0/WC.save/charge-density


     negative rho (up, down):  6.721E-02 0.000E+00
     Starting wfcs are   17 atomic wfcs
     Checking if some PAW data can be deallocated...

     Band Structure Calculation
     Davidson diagonalization with overlap

     ethr =  5.56E-11,  avg # of iterations = 12.6

     total cpu time spent up to now is       47.0 secs

     End of band structure calculation

     Number of k-points >= 100: set verbosity='high' to print the bands.

     the Fermi energy is    20.2697 ev

     Writing output data file ./_ph0/WC.save/

     default

     bravais-lattice index     =            0
     lattice parameter (alat)  =       5.5247  a.u.
     unit-cell volume          =     142.3047 (a.u.)^3
     number of atoms/cell      =            2
     number of atomic types    =            2
     kinetic-energy cut-off    =      55.0000  Ry
     charge density cut-off    =     440.0000  Ry
     convergence threshold     =      5.0E-15
     beta                      =       0.7000
     number of iterations used =            4
     Exchange-correlation= PBE
                           (   1   4   3   4   0   0   0)


     celldm(1)=    5.52472  celldm(2)=    0.00000  celldm(3)=    0.00000
     celldm(4)=    0.00000  celldm(5)=    0.00000  celldm(6)=    0.00000

     crystal axes: (cart. coord. in units of alat)
               a(1) = (  1.0000  0.0000  0.0000 )
               a(2) = ( -0.5000  0.8660  0.0000 )
               a(3) = (  0.0000  0.0000  0.9744 )

     reciprocal axes: (cart. coord. in units 2 pi/alat)
               b(1) = (  1.0000  0.5774  0.0000 )
               b(2) = (  0.0000  1.1547  0.0000 )
               b(3) = (  0.0000  0.0000  1.0262 )


     Atoms inside the unit cell:

     Cartesian axes

     site n.  atom      mass           positions (alat units)
        1     W  183.8400   tau(    1) = (    0.00000    0.00000    0.00000  )
        2     C   12.0110   tau(    2) = (    0.50000    0.28868    0.48722  )

     Computing dynamical matrix for
                    q = (   0.0000000   0.0000000   0.2565556 )

      6 Sym.Ops. (no q -> -q+G )


     G cutoff =  340.1833  (   7384 G-vectors)     FFT grid: ( 40, 40, 36)
     G cutoff =  170.0917  (   2602 G-vectors)  smooth grid: ( 27, 27, 25)

     number of k points=  3234  Methfessel-Paxton smearing, width (Ry)=  0.0019

     PseudoPot. # 1 for W  read from file:
     /home/sl119982/WBC-phase-stability/SSSP_1.1.2_PBE_precision/W_pbe_v1.2.uspp.F.UPF
     MD5 check sum: 9c083fa34c2a2ea0f02f1f893e16e1c8
     Pseudo is Ultrasoft + core correction, Zval = 14.0
     Generated by new atomic code, or converted to UPF format
     Using radial grid of  923 points,  8 beta functions with:
                l(1) =   0
                l(2) =   0
                l(3) =   0
                l(4) =   1
                l(5) =   1
                l(6) =   2
                l(7) =   2
                l(8) =   3
     Q(r) pseudized with  6 coefficients,  rinner =    1.350   1.350   1.350
                                                       1.350   1.350   1.350
                                                       1.350

     PseudoPot. # 2 for C  read from file:
     /home/sl119982/WBC-phase-stability/SSSP_1.1.2_PBE_precision/C.pbe-n-kjpaw_psl.1.0.0.UPF
     MD5 check sum: 5d2aebdfa2cae82b50a7e79e9516da0f
     Pseudo is Projector augmented-wave + core cor, Zval =  4.0
     Generated using "atomic" code by A. Dal Corso  v.5.1
     Shape of augmentation charge: PSQ
     Using radial grid of 1073 points,  4 beta functions with:
                l(1) =   0
                l(2) =   0
                l(3) =   1
                l(4) =   1
     Q(r) pseudized with 0 coefficients


     Mode symmetry, C_3v (3m)   point group:


     Atomic displacements:
     There are    4 irreducible representations

     Representation     1      1 modes -  To be done

     Representation     2      1 modes -  To be done

     Representation     3      2 modes -  To be done

     Representation     4      2 modes -  To be done



     Alpha used in Ewald sum =   2.8000

     negative rho (up, down):  6.721E-02 0.000E+00
     PHONON       :  10m51.02s CPU  11m39.28s WALL



     Representation #   1 mode #   1

     Self-consistent Calculation

      iter #   1 total cpu time :   708.3 secs   av.it.:  11.0
      thresh= 1.000E-02 alpha_mix =  0.700 |ddv_scf|^2 =  5.777E-02

      iter #   2 total cpu time :   718.4 secs   av.it.:  13.4
      thresh= 1.000E-02 alpha_mix =  0.700 |ddv_scf|^2 =  5.549E+00

      iter #   3 total cpu time :   728.4 secs   av.it.:  13.3
      thresh= 1.000E-02 alpha_mix =  0.700 |ddv_scf|^2 =  7.528E-04

      iter #   4 total cpu time :   739.0 secs   av.it.:  12.5
      thresh= 2.744E-03 alpha_mix =  0.700 |ddv_scf|^2 =  6.281E-04

      iter #   5 total cpu time :   747.7 secs   av.it.:  11.6
      thresh= 2.506E-03 alpha_mix =  0.700 |ddv_scf|^2 =  7.711E-07

      iter #   6 total cpu time :   757.3 secs   av.it.:  12.8
      thresh= 8.781E-05 alpha_mix =  0.700 |ddv_scf|^2 =  8.233E-09

      iter #   7 total cpu time :   766.3 secs   av.it.:  11.8
      thresh= 9.074E-06 alpha_mix =  0.700 |ddv_scf|^2 =  3.001E-11

      iter #   8 total cpu time :   776.6 secs   av.it.:  13.1
      thresh= 5.478E-07 alpha_mix =  0.700 |ddv_scf|^2 =  2.523E-11

      iter #   9 total cpu time :   784.6 secs   av.it.:   9.8
      thresh= 5.023E-07 alpha_mix =  0.700 |ddv_scf|^2 =  1.564E-13

      iter #  10 total cpu time :   794.1 secs   av.it.:  12.4
      thresh= 3.955E-08 alpha_mix =  0.700 |ddv_scf|^2 =  5.827E-12

      iter #  11 total cpu time :   801.3 secs   av.it.:   8.7
      thresh= 2.414E-07 alpha_mix =  0.700 |ddv_scf|^2 =  4.689E-15

     End of self-consistent calculation

     Convergence has been achieved


     Representation #   2 mode #   2

     Self-consistent Calculation

      iter #   1 total cpu time :   808.9 secs   av.it.:   7.9
      thresh= 1.000E-02 alpha_mix =  0.700 |ddv_scf|^2 =  5.950E-03

      iter #   2 total cpu time :   818.2 secs   av.it.:  12.2
      thresh= 7.714E-03 alpha_mix =  0.700 |ddv_scf|^2 =  5.907E-01

      iter #   3 total cpu time :   827.3 secs   av.it.:  11.9
      thresh= 1.000E-02 alpha_mix =  0.700 |ddv_scf|^2 =  1.103E-05

      iter #   4 total cpu time :   837.9 secs   av.it.:  13.4
      thresh= 3.321E-04 alpha_mix =  0.700 |ddv_scf|^2 =  3.792E-05

      iter #   5 total cpu time :   847.2 secs   av.it.:  11.7
      thresh= 6.158E-04 alpha_mix =  0.700 |ddv_scf|^2 =  6.381E-08

      iter #   6 total cpu time :   856.9 secs   av.it.:  12.7
      thresh= 2.526E-05 alpha_mix =  0.700 |ddv_scf|^2 =  1.166E-09

      iter #   7 total cpu time :   865.8 secs   av.it.:  11.7
      thresh= 3.415E-06 alpha_mix =  0.700 |ddv_scf|^2 =  1.894E-10

      iter #   8 total cpu time :   874.1 secs   av.it.:   9.9
      thresh= 1.376E-06 alpha_mix =  0.700 |ddv_scf|^2 =  2.038E-12

      iter #   9 total cpu time :   882.1 secs   av.it.:   9.9
      thresh= 1.428E-07 alpha_mix =  0.700 |ddv_scf|^2 =  1.888E-14

      iter #  10 total cpu time :   891.3 secs   av.it.:  12.3
      thresh= 1.374E-08 alpha_mix =  0.700 |ddv_scf|^2 =  1.264E-13

      iter #  11 total cpu time :   899.3 secs   av.it.:  10.1
      thresh= 3.555E-08 alpha_mix =  0.700 |ddv_scf|^2 =  1.273E-14

      iter #  12 total cpu time :   909.0 secs   av.it.:  12.4
      thresh= 1.128E-08 alpha_mix =  0.700 |ddv_scf|^2 =  1.094E-14

      iter #  13 total cpu time :   917.6 secs   av.it.:  11.5
      thresh= 1.046E-08 alpha_mix =  0.700 |ddv_scf|^2 =  9.287E-16

     End of self-consistent calculation

     Convergence has been achieved


     Representation #   3 modes #   3   4

     Self-consistent Calculation

      iter #   1 total cpu time :   929.7 secs   av.it.:   6.3
      thresh= 1.000E-02 alpha_mix =  0.700 |ddv_scf|^2 =  3.518E-07

      iter #   2 total cpu time :   952.5 secs   av.it.:  14.9
      thresh= 5.932E-05 alpha_mix =  0.700 |ddv_scf|^2 =  1.092E-08

      iter #   3 total cpu time :   974.0 secs   av.it.:  14.8
      thresh= 1.045E-05 alpha_mix =  0.700 |ddv_scf|^2 =  5.979E-10

      iter #   4 total cpu time :   994.2 secs   av.it.:  13.9
      thresh= 2.445E-06 alpha_mix =  0.700 |ddv_scf|^2 =  1.137E-11

      iter #   5 total cpu time :  1014.7 secs   av.it.:  14.2
      thresh= 3.372E-07 alpha_mix =  0.700 |ddv_scf|^2 =  4.799E-13

      iter #   6 total cpu time :  1034.6 secs   av.it.:  13.6
      thresh= 6.927E-08 alpha_mix =  0.700 |ddv_scf|^2 =  4.671E-15

     End of self-consistent calculation

     Convergence has been achieved


     Representation #   4 modes #   5   6

     Self-consistent Calculation

      iter #   1 total cpu time :  1049.8 secs   av.it.:   9.0
      thresh= 1.000E-02 alpha_mix =  0.700 |ddv_scf|^2 =  3.512E-06

      iter #   2 total cpu time :  1072.0 secs   av.it.:  14.8
      thresh= 1.874E-04 alpha_mix =  0.700 |ddv_scf|^2 =  1.012E-07

      iter #   3 total cpu time :  1093.4 secs   av.it.:  15.1
      thresh= 3.181E-05 alpha_mix =  0.700 |ddv_scf|^2 =  1.401E-09

      iter #   4 total cpu time :  1115.3 secs   av.it.:  15.0
      thresh= 3.742E-06 alpha_mix =  0.700 |ddv_scf|^2 =  1.123E-11

      iter #   5 total cpu time :  1136.7 secs   av.it.:  15.0
      thresh= 3.351E-07 alpha_mix =  0.700 |ddv_scf|^2 =  4.673E-13

      iter #   6 total cpu time :  1158.1 secs   av.it.:  14.9
      thresh= 6.836E-08 alpha_mix =  0.700 |ddv_scf|^2 =  6.264E-15

      iter #   7 total cpu time :  1178.7 secs   av.it.:  14.3
      thresh= 7.915E-09 alpha_mix =  0.700 |ddv_scf|^2 =  2.478E-16

     End of self-consistent calculation

     Convergence has been achieved

     Number of q in the star =    2
     List of q in the star:
          1   0.000000000   0.000000000   0.256555576
          2   0.000000000   0.000000000  -0.256555576

     Diagonalizing the dynamical matrix

     q = (    0.000000000   0.000000000   0.256555576 )

 **************************************************************************
     freq (    1) =       3.568774 [THz] =     119.041502 [cm-1]
     freq (    2) =       3.568774 [THz] =     119.041502 [cm-1]
     freq (    3) =       6.047917 [THz] =     201.736809 [cm-1]
     freq (    4) =      16.953904 [THz] =     565.521372 [cm-1]
     freq (    5) =      16.953904 [THz] =     565.521372 [cm-1]
     freq (    6) =      20.560347 [THz] =     685.819347 [cm-1]
 **************************************************************************

     Mode symmetry, C_3v (3m)   point group:

     freq (   1-   2) =        119.0  [cm-1]   --> E    L_3
     freq (   3-   3) =        201.7  [cm-1]   --> A_1  L_1
     freq (   4-   5) =        565.5  [cm-1]   --> E    L_3
     freq (   6-   6) =        685.8  [cm-1]   --> A_1  L_1

     Calculation of q =    0.0000000   0.0000000   0.3848334

     Parallelization info
     --------------------
     sticks:   dense  smooth     PW     G-vecs:    dense   smooth      PW
     Min         308     153     53                 7382     2602     519
     Max         309     156     55                 7385     2603     519
     Sum         925     463    163                22151     7807    1557

     Using Slab Decomposition


     Title:
     default


     bravais-lattice index     =            0
     lattice parameter (alat)  =       5.5247  a.u.
     unit-cell volume          =     142.3047 (a.u.)^3
     number of atoms/cell      =            2
     number of atomic types    =            2
     number of electrons       =        18.00
     number of Kohn-Sham states=           13
     kinetic-energy cutoff     =      55.0000  Ry
     charge density cutoff     =     440.0000  Ry
     Exchange-correlation= PBE
                           (   1   4   3   4   0   0   0)

     celldm(1)=   5.524717  celldm(2)=   0.000000  celldm(3)=   0.000000
     celldm(4)=   0.000000  celldm(5)=   0.000000  celldm(6)=   0.000000

     crystal axes: (cart. coord. in units of alat)
               a(1) = (   1.000000   0.000000   0.000000 )
               a(2) = (  -0.500000   0.866025   0.000000 )
               a(3) = (   0.000000   0.000000   0.974448 )

     reciprocal axes: (cart. coord. in units 2 pi/alat)
               b(1) = (  1.000000  0.577350  0.000000 )
               b(2) = (  0.000000  1.154701  0.000000 )
               b(3) = (  0.000000  0.000000  1.026222 )


     PseudoPot. # 1 for W  read from file:
     /home/sl119982/WBC-phase-stability/SSSP_1.1.2_PBE_precision/W_pbe_v1.2.uspp.F.UPF
     MD5 check sum: 9c083fa34c2a2ea0f02f1f893e16e1c8
     Pseudo is Ultrasoft + core correction, Zval = 14.0
     Generated by new atomic code, or converted to UPF format
     Using radial grid of  923 points,  8 beta functions with:
                l(1) =   0
                l(2) =   0
                l(3) =   0
                l(4) =   1
                l(5) =   1
                l(6) =   2
                l(7) =   2
                l(8) =   3
     Q(r) pseudized with  6 coefficients,  rinner =    1.350   1.350   1.350
                                                       1.350   1.350   1.350
                                                       1.350

     PseudoPot. # 2 for C  read from file:
     /home/sl119982/WBC-phase-stability/SSSP_1.1.2_PBE_precision/C.pbe-n-kjpaw_psl.1.0.0.UPF
     MD5 check sum: 5d2aebdfa2cae82b50a7e79e9516da0f
     Pseudo is Projector augmented-wave + core cor, Zval =  4.0
     Generated using "atomic" code by A. Dal Corso  v.5.1
     Shape of augmentation charge: PSQ
     Using radial grid of 1073 points,  4 beta functions with:
                l(1) =   0
                l(2) =   0
                l(3) =   1
                l(4) =   1
     Q(r) pseudized with 0 coefficients


     atomic species   valence    mass     pseudopotential
        W             14.00   183.84000     W ( 1.00)
        C              4.00    12.01100     C ( 1.00)

     12 Sym. Ops. (no inversion) found



   Cartesian axes

     site n.     atom                  positions (alat units)
         1           W   tau(   1) = (   0.0000000   0.0000000   0.0000000  )
         2           C   tau(   2) = (   0.5000000   0.2886751   0.4872239  )

     number of k points=  3234  Methfessel-Paxton smearing, width (Ry)=  0.0019

     Number of k-points >= 100: set verbosity='high' to print them.

     Dense  grid:    22151 G-vectors     FFT dimensions: (  40,  40,  36)

     Smooth grid:     7807 G-vectors     FFT dimensions: (  27,  27,  25)

     Estimated max dynamical RAM per process >      16.47 MB

     Estimated total dynamical RAM >     395.26 MB

     The potential is recalculated from file :
     ./_ph0/WC.save/charge-density


     negative rho (up, down):  6.721E-02 0.000E+00
     Starting wfcs are   17 atomic wfcs
     Checking if some PAW data can be deallocated...

     Band Structure Calculation
     Davidson diagonalization with overlap

     ethr =  5.56E-11,  avg # of iterations = 12.6

     total cpu time spent up to now is       70.0 secs

     End of band structure calculation

     Number of k-points >= 100: set verbosity='high' to print the bands.

     the Fermi energy is    20.2697 ev

     Writing output data file ./_ph0/WC.save/

     default

     bravais-lattice index     =            0
     lattice parameter (alat)  =       5.5247  a.u.
     unit-cell volume          =     142.3047 (a.u.)^3
     number of atoms/cell      =            2
     number of atomic types    =            2
     kinetic-energy cut-off    =      55.0000  Ry
     charge density cut-off    =     440.0000  Ry
     convergence threshold     =      5.0E-15
     beta                      =       0.7000
     number of iterations used =            4
     Exchange-correlation= PBE
                           (   1   4   3   4   0   0   0)


     celldm(1)=    5.52472  celldm(2)=    0.00000  celldm(3)=    0.00000
     celldm(4)=    0.00000  celldm(5)=    0.00000  celldm(6)=    0.00000

     crystal axes: (cart. coord. in units of alat)
               a(1) = (  1.0000  0.0000  0.0000 )
               a(2) = ( -0.5000  0.8660  0.0000 )
               a(3) = (  0.0000  0.0000  0.9744 )

     reciprocal axes: (cart. coord. in units 2 pi/alat)
               b(1) = (  1.0000  0.5774  0.0000 )
               b(2) = (  0.0000  1.1547  0.0000 )
               b(3) = (  0.0000  0.0000  1.0262 )


     Atoms inside the unit cell:

     Cartesian axes

     site n.  atom      mass           positions (alat units)
        1     W  183.8400   tau(    1) = (    0.00000    0.00000    0.00000  )
        2     C   12.0110   tau(    2) = (    0.50000    0.28868    0.48722  )

     Computing dynamical matrix for
                    q = (   0.0000000   0.0000000   0.3848334 )

      6 Sym.Ops. (no q -> -q+G )


     G cutoff =  340.1833  (   7385 G-vectors)     FFT grid: ( 40, 40, 36)
     G cutoff =  170.0917  (   2602 G-vectors)  smooth grid: ( 27, 27, 25)

     number of k points=  3234  Methfessel-Paxton smearing, width (Ry)=  0.0019

     PseudoPot. # 1 for W  read from file:
     /home/sl119982/WBC-phase-stability/SSSP_1.1.2_PBE_precision/W_pbe_v1.2.uspp.F.UPF
     MD5 check sum: 9c083fa34c2a2ea0f02f1f893e16e1c8
     Pseudo is Ultrasoft + core correction, Zval = 14.0
     Generated by new atomic code, or converted to UPF format
     Using radial grid of  923 points,  8 beta functions with:
                l(1) =   0
                l(2) =   0
                l(3) =   0
                l(4) =   1
                l(5) =   1
                l(6) =   2
                l(7) =   2
                l(8) =   3
     Q(r) pseudized with  6 coefficients,  rinner =    1.350   1.350   1.350
                                                       1.350   1.350   1.350
                                                       1.350

     PseudoPot. # 2 for C  read from file:
     /home/sl119982/WBC-phase-stability/SSSP_1.1.2_PBE_precision/C.pbe-n-kjpaw_psl.1.0.0.UPF
     MD5 check sum: 5d2aebdfa2cae82b50a7e79e9516da0f
     Pseudo is Projector augmented-wave + core cor, Zval =  4.0
     Generated using "atomic" code by A. Dal Corso  v.5.1
     Shape of augmentation charge: PSQ
     Using radial grid of 1073 points,  4 beta functions with:
                l(1) =   0
                l(2) =   0
                l(3) =   1
                l(4) =   1
     Q(r) pseudized with 0 coefficients


     Mode symmetry, C_3v (3m)   point group:


     Atomic displacements:
     There are    4 irreducible representations

     Representation     1      1 modes -  To be done

     Representation     2      1 modes -  To be done

     Representation     3      2 modes -  To be done

     Representation     4      2 modes -  To be done



     Alpha used in Ewald sum =   2.8000

     negative rho (up, down):  6.721E-02 0.000E+00
     PHONON       :  18m50.80s CPU  20m 8.19s WALL



     Representation #   1 mode #   1

     Self-consistent Calculation

      iter #   1 total cpu time :  1216.9 secs   av.it.:  10.6
      thresh= 1.000E-02 alpha_mix =  0.700 |ddv_scf|^2 =  7.143E-03

      iter #   2 total cpu time :  1226.8 secs   av.it.:  13.0
      thresh= 8.451E-03 alpha_mix =  0.700 |ddv_scf|^2 =  1.933E-01

      iter #   3 total cpu time :  1236.3 secs   av.it.:  12.3
      thresh= 1.000E-02 alpha_mix =  0.700 |ddv_scf|^2 =  1.093E-03

      iter #   4 total cpu time :  1246.6 secs   av.it.:  11.7
      thresh= 3.307E-03 alpha_mix =  0.700 |ddv_scf|^2 =  1.572E-05

      iter #   5 total cpu time :  1256.1 secs   av.it.:  12.4
      thresh= 3.964E-04 alpha_mix =  0.700 |ddv_scf|^2 =  8.122E-07

      iter #   6 total cpu time :  1265.3 secs   av.it.:  12.0
      thresh= 9.012E-05 alpha_mix =  0.700 |ddv_scf|^2 =  5.030E-09

      iter #   7 total cpu time :  1274.5 secs   av.it.:  12.0
      thresh= 7.093E-06 alpha_mix =  0.700 |ddv_scf|^2 =  1.589E-10

      iter #   8 total cpu time :  1284.2 secs   av.it.:  11.8
      thresh= 1.261E-06 alpha_mix =  0.700 |ddv_scf|^2 =  6.551E-12

      iter #   9 total cpu time :  1292.7 secs   av.it.:  10.9
      thresh= 2.559E-07 alpha_mix =  0.700 |ddv_scf|^2 =  3.688E-14

      iter #  10 total cpu time :  1302.6 secs   av.it.:  12.7
      thresh= 1.920E-08 alpha_mix =  0.700 |ddv_scf|^2 =  4.067E-15

     End of self-consistent calculation

     Convergence has been achieved


     Representation #   2 mode #   2

     Self-consistent Calculation

      iter #   1 total cpu time :  1310.1 secs   av.it.:   7.6
      thresh= 1.000E-02 alpha_mix =  0.700 |ddv_scf|^2 =  9.248E-04

      iter #   2 total cpu time :  1320.3 secs   av.it.:  12.8
      thresh= 3.041E-03 alpha_mix =  0.700 |ddv_scf|^2 =  2.963E-02

      iter #   3 total cpu time :  1329.0 secs   av.it.:  10.9
      thresh= 1.000E-02 alpha_mix =  0.700 |ddv_scf|^2 =  2.148E-05

      iter #   4 total cpu time :  1338.5 secs   av.it.:  12.3
      thresh= 4.634E-04 alpha_mix =  0.700 |ddv_scf|^2 =  3.932E-06

      iter #   5 total cpu time :  1348.5 secs   av.it.:  11.9
      thresh= 1.983E-04 alpha_mix =  0.700 |ddv_scf|^2 =  5.623E-08

      iter #   6 total cpu time :  1357.9 secs   av.it.:  12.2
      thresh= 2.371E-05 alpha_mix =  0.700 |ddv_scf|^2 =  8.524E-10

      iter #   7 total cpu time :  1367.2 secs   av.it.:  12.1
      thresh= 2.920E-06 alpha_mix =  0.700 |ddv_scf|^2 =  3.533E-10

      iter #   8 total cpu time :  1375.8 secs   av.it.:  10.7
      thresh= 1.880E-06 alpha_mix =  0.700 |ddv_scf|^2 =  2.124E-13

      iter #   9 total cpu time :  1385.2 secs   av.it.:  11.4
      thresh= 4.609E-08 alpha_mix =  0.700 |ddv_scf|^2 =  1.694E-14

      iter #  10 total cpu time :  1394.2 secs   av.it.:  11.8
      thresh= 1.302E-08 alpha_mix =  0.700 |ddv_scf|^2 =  2.603E-15

     End of self-consistent calculation

     Convergence has been achieved


     Representation #   3 modes #   3   4

     Self-consistent Calculation

      iter #   1 total cpu time :  1407.0 secs   av.it.:   6.2
      thresh= 1.000E-02 alpha_mix =  0.700 |ddv_scf|^2 =  3.158E-07

      iter #   2 total cpu time :  1429.2 secs   av.it.:  14.8
      thresh= 5.619E-05 alpha_mix =  0.700 |ddv_scf|^2 =  7.513E-09

      iter #   3 total cpu time :  1451.1 secs   av.it.:  14.8
      thresh= 8.668E-06 alpha_mix =  0.700 |ddv_scf|^2 =  5.157E-10

      iter #   4 total cpu time :  1471.0 secs   av.it.:  13.7
      thresh= 2.271E-06 alpha_mix =  0.700 |ddv_scf|^2 =  6.945E-12

      iter #   5 total cpu time :  1492.2 secs   av.it.:  14.2
      thresh= 2.635E-07 alpha_mix =  0.700 |ddv_scf|^2 =  4.000E-13

      iter #   6 total cpu time :  1512.3 secs   av.it.:  13.7
      thresh= 6.325E-08 alpha_mix =  0.700 |ddv_scf|^2 =  1.408E-15

     End of self-consistent calculation

     Convergence has been achieved


     Representation #   4 modes #   5   6

     Self-consistent Calculation

      iter #   1 total cpu time :  1527.7 secs   av.it.:   8.9
      thresh= 1.000E-02 alpha_mix =  0.700 |ddv_scf|^2 =  3.204E-06

      iter #   2 total cpu time :  1550.6 secs   av.it.:  14.8
      thresh= 1.790E-04 alpha_mix =  0.700 |ddv_scf|^2 =  7.428E-08

      iter #   3 total cpu time :  1572.4 secs   av.it.:  15.1
      thresh= 2.726E-05 alpha_mix =  0.700 |ddv_scf|^2 =  1.222E-09

      iter #   4 total cpu time :  1594.0 secs   av.it.:  14.9
      thresh= 3.496E-06 alpha_mix =  0.700 |ddv_scf|^2 =  8.336E-12

      iter #   5 total cpu time :  1615.7 secs   av.it.:  15.0
      thresh= 2.887E-07 alpha_mix =  0.700 |ddv_scf|^2 =  2.554E-13

      iter #   6 total cpu time :  1637.2 secs   av.it.:  14.8
      thresh= 5.054E-08 alpha_mix =  0.700 |ddv_scf|^2 =  3.751E-15

     End of self-consistent calculation

     Convergence has been achieved

     Number of q in the star =    2
     List of q in the star:
          1   0.000000000   0.000000000   0.384833363
          2   0.000000000   0.000000000  -0.384833363

     Diagonalizing the dynamical matrix

     q = (    0.000000000   0.000000000   0.384833363 )

 **************************************************************************
     freq (    1) =       4.768443 [THz] =     159.058130 [cm-1]
     freq (    2) =       4.768443 [THz] =     159.058130 [cm-1]
     freq (    3) =       7.789175 [THz] =     259.818902 [cm-1]
     freq (    4) =      16.115555 [THz] =     537.557068 [cm-1]
     freq (    5) =      16.115555 [THz] =     537.557068 [cm-1]
     freq (    6) =      21.569225 [THz] =     719.471902 [cm-1]
 **************************************************************************

     Mode symmetry, C_3v (3m)   point group:

     freq (   1-   2) =        159.1  [cm-1]   --> E    L_3
     freq (   3-   3) =        259.8  [cm-1]   --> A_1  L_1
     freq (   4-   5) =        537.6  [cm-1]   --> E    L_3
     freq (   6-   6) =        719.5  [cm-1]   --> A_1  L_1

     Calculation of q =    0.0000000   0.0000000  -0.5131112

     Parallelization info
     --------------------
     sticks:   dense  smooth     PW     G-vecs:    dense   smooth      PW
     Min         308     153     50                 7382     2602     470
     Max         309     156     51                 7385     2603     473
     Sum         925     463    151                22151     7807    1413

     Using Slab Decomposition


     Title:
     default


     bravais-lattice index     =            0
     lattice parameter (alat)  =       5.5247  a.u.
     unit-cell volume          =     142.3047 (a.u.)^3
     number of atoms/cell      =            2
     number of atomic types    =            2
     number of electrons       =        18.00
     number of Kohn-Sham states=           13
     kinetic-energy cutoff     =      55.0000  Ry
     charge density cutoff     =     440.0000  Ry
     Exchange-correlation= PBE
                           (   1   4   3   4   0   0   0)

     celldm(1)=   5.524717  celldm(2)=   0.000000  celldm(3)=   0.000000
     celldm(4)=   0.000000  celldm(5)=   0.000000  celldm(6)=   0.000000

     crystal axes: (cart. coord. in units of alat)
               a(1) = (   1.000000   0.000000   0.000000 )
               a(2) = (  -0.500000   0.866025   0.000000 )
               a(3) = (   0.000000   0.000000   0.974448 )

     reciprocal axes: (cart. coord. in units 2 pi/alat)
               b(1) = (  1.000000  0.577350  0.000000 )
               b(2) = (  0.000000  1.154701  0.000000 )
               b(3) = (  0.000000  0.000000  1.026222 )


     PseudoPot. # 1 for W  read from file:
     /home/sl119982/WBC-phase-stability/SSSP_1.1.2_PBE_precision/W_pbe_v1.2.uspp.F.UPF
     MD5 check sum: 9c083fa34c2a2ea0f02f1f893e16e1c8
     Pseudo is Ultrasoft + core correction, Zval = 14.0
     Generated by new atomic code, or converted to UPF format
     Using radial grid of  923 points,  8 beta functions with:
                l(1) =   0
                l(2) =   0
                l(3) =   0
                l(4) =   1
                l(5) =   1
                l(6) =   2
                l(7) =   2
                l(8) =   3
     Q(r) pseudized with  6 coefficients,  rinner =    1.350   1.350   1.350
                                                       1.350   1.350   1.350
                                                       1.350

     PseudoPot. # 2 for C  read from file:
     /home/sl119982/WBC-phase-stability/SSSP_1.1.2_PBE_precision/C.pbe-n-kjpaw_psl.1.0.0.UPF
     MD5 check sum: 5d2aebdfa2cae82b50a7e79e9516da0f
     Pseudo is Projector augmented-wave + core cor, Zval =  4.0
     Generated using "atomic" code by A. Dal Corso  v.5.1
     Shape of augmentation charge: PSQ
     Using radial grid of 1073 points,  4 beta functions with:
                l(1) =   0
                l(2) =   0
                l(3) =   1
                l(4) =   1
     Q(r) pseudized with 0 coefficients


     atomic species   valence    mass     pseudopotential
        W             14.00   183.84000     W ( 1.00)
        C              4.00    12.01100     C ( 1.00)

     12 Sym. Ops. (no inversion) found



   Cartesian axes

     site n.     atom                  positions (alat units)
         1           W   tau(   1) = (   0.0000000   0.0000000   0.0000000  )
         2           C   tau(   2) = (   0.5000000   0.2886751   0.4872239  )

     number of k points=   968  Methfessel-Paxton smearing, width (Ry)=  0.0019

     Number of k-points >= 100: set verbosity='high' to print them.

     Dense  grid:    22151 G-vectors     FFT dimensions: (  40,  40,  36)

     Smooth grid:     7807 G-vectors     FFT dimensions: (  27,  27,  25)

     Estimated max dynamical RAM per process >      16.52 MB

     Estimated total dynamical RAM >     396.48 MB

     The potential is recalculated from file :
     ./_ph0/WC.save/charge-density


     negative rho (up, down):  6.721E-02 0.000E+00
     Starting wfcs are   17 atomic wfcs
     Checking if some PAW data can be deallocated...

     Band Structure Calculation
     Davidson diagonalization with overlap

     ethr =  5.56E-11,  avg # of iterations = 12.5

     total cpu time spent up to now is       77.9 secs

     End of band structure calculation

     Number of k-points >= 100: set verbosity='high' to print the bands.

     the Fermi energy is    20.2697 ev

     Writing output data file ./_ph0/WC.save/

     default

     bravais-lattice index     =            0
     lattice parameter (alat)  =       5.5247  a.u.
     unit-cell volume          =     142.3047 (a.u.)^3
     number of atoms/cell      =            2
     number of atomic types    =            2
     kinetic-energy cut-off    =      55.0000  Ry
     charge density cut-off    =     440.0000  Ry
     convergence threshold     =      5.0E-15
     beta                      =       0.7000
     number of iterations used =            4
     Exchange-correlation= PBE
                           (   1   4   3   4   0   0   0)


     celldm(1)=    5.52472  celldm(2)=    0.00000  celldm(3)=    0.00000
     celldm(4)=    0.00000  celldm(5)=    0.00000  celldm(6)=    0.00000

     crystal axes: (cart. coord. in units of alat)
               a(1) = (  1.0000  0.0000  0.0000 )
               a(2) = ( -0.5000  0.8660  0.0000 )
               a(3) = (  0.0000  0.0000  0.9744 )

     reciprocal axes: (cart. coord. in units 2 pi/alat)
               b(1) = (  1.0000  0.5774  0.0000 )
               b(2) = (  0.0000  1.1547  0.0000 )
               b(3) = (  0.0000  0.0000  1.0262 )


     Atoms inside the unit cell:

     Cartesian axes

     site n.  atom      mass           positions (alat units)
        1     W  183.8400   tau(    1) = (    0.00000    0.00000    0.00000  )
        2     C   12.0110   tau(    2) = (    0.50000    0.28868    0.48722  )

     Computing dynamical matrix for
                    q = (   0.0000000   0.0000000  -0.5131112 )

     13 Sym.Ops. (with q -> -q+G )


     G cutoff =  340.1833  (   7385 G-vectors)     FFT grid: ( 40, 40, 36)
     G cutoff =  170.0917  (   2602 G-vectors)  smooth grid: ( 27, 27, 25)

     number of k points=   968  Methfessel-Paxton smearing, width (Ry)=  0.0019

     PseudoPot. # 1 for W  read from file:
     /home/sl119982/WBC-phase-stability/SSSP_1.1.2_PBE_precision/W_pbe_v1.2.uspp.F.UPF
     MD5 check sum: 9c083fa34c2a2ea0f02f1f893e16e1c8
     Pseudo is Ultrasoft + core correction, Zval = 14.0
     Generated by new atomic code, or converted to UPF format
     Using radial grid of  923 points,  8 beta functions with:
                l(1) =   0
                l(2) =   0
                l(3) =   0
                l(4) =   1
                l(5) =   1
                l(6) =   2
                l(7) =   2
                l(8) =   3
     Q(r) pseudized with  6 coefficients,  rinner =    1.350   1.350   1.350
                                                       1.350   1.350   1.350
                                                       1.350

     PseudoPot. # 2 for C  read from file:
     /home/sl119982/WBC-phase-stability/SSSP_1.1.2_PBE_precision/C.pbe-n-kjpaw_psl.1.0.0.UPF
     MD5 check sum: 5d2aebdfa2cae82b50a7e79e9516da0f
     Pseudo is Projector augmented-wave + core cor, Zval =  4.0
     Generated using "atomic" code by A. Dal Corso  v.5.1
     Shape of augmentation charge: PSQ
     Using radial grid of 1073 points,  4 beta functions with:
                l(1) =   0
                l(2) =   0
                l(3) =   1
                l(4) =   1
     Q(r) pseudized with 0 coefficients


     Mode symmetry, D_3h (-62m) point group:


     Atomic displacements:
     There are    4 irreducible representations

     Representation     1      1 modes -  To be done

     Representation     2      2 modes -  To be done

     Representation     3      1 modes -  To be done

     Representation     4      2 modes -  To be done



     Alpha used in Ewald sum =   2.8000

     negative rho (up, down):  6.721E-02 0.000E+00
     PHONON       :  25m46.31s CPU  27m28.94s WALL



     Representation #   1 mode #   1

     Self-consistent Calculation

      iter #   1 total cpu time :  1651.3 secs   av.it.:   7.3
      thresh= 1.000E-02 alpha_mix =  0.700 |ddv_scf|^2 =  4.108E-04

      iter #   2 total cpu time :  1654.7 secs   av.it.:  12.5
      thresh= 2.027E-03 alpha_mix =  0.700 |ddv_scf|^2 =  6.947E-03

      iter #   3 total cpu time :  1657.5 secs   av.it.:  10.2
      thresh= 8.335E-03 alpha_mix =  0.700 |ddv_scf|^2 =  2.715E-06

      iter #   4 total cpu time :  1660.4 secs   av.it.:  11.5
      thresh= 1.648E-04 alpha_mix =  0.700 |ddv_scf|^2 =  7.984E-08

      iter #   5 total cpu time :  1663.4 secs   av.it.:  11.2
      thresh= 2.826E-05 alpha_mix =  0.700 |ddv_scf|^2 =  7.385E-10

      iter #   6 total cpu time :  1666.3 secs   av.it.:  11.6
      thresh= 2.717E-06 alpha_mix =  0.700 |ddv_scf|^2 =  1.550E-12

      iter #   7 total cpu time :  1669.2 secs   av.it.:  11.3
      thresh= 1.245E-07 alpha_mix =  0.700 |ddv_scf|^2 =  8.188E-15

      iter #   8 total cpu time :  1672.1 secs   av.it.:  11.5
      thresh= 9.049E-09 alpha_mix =  0.700 |ddv_scf|^2 =  2.122E-16

     End of self-consistent calculation

     Convergence has been achieved


     Representation #   2 modes #   2   3

     Self-consistent Calculation

      iter #   1 total cpu time :  1677.0 secs   av.it.:   8.8
      thresh= 1.000E-02 alpha_mix =  0.700 |ddv_scf|^2 =  3.085E-06

      iter #   2 total cpu time :  1684.7 secs   av.it.:  14.4
      thresh= 1.756E-04 alpha_mix =  0.700 |ddv_scf|^2 =  6.485E-08

      iter #   3 total cpu time :  1691.6 secs   av.it.:  14.7
      thresh= 2.546E-05 alpha_mix =  0.700 |ddv_scf|^2 =  1.150E-09

      iter #   4 total cpu time :  1698.4 secs   av.it.:  14.7
      thresh= 3.391E-06 alpha_mix =  0.700 |ddv_scf|^2 =  7.277E-12

      iter #   5 total cpu time :  1705.1 secs   av.it.:  14.7
      thresh= 2.698E-07 alpha_mix =  0.700 |ddv_scf|^2 =  3.666E-14

      iter #   6 total cpu time :  1711.5 secs   av.it.:  14.1
      thresh= 1.915E-08 alpha_mix =  0.700 |ddv_scf|^2 =  1.646E-15

     End of self-consistent calculation

     Convergence has been achieved


     Representation #   3 mode #   4

     Self-consistent Calculation

      iter #   1 total cpu time :  1714.6 secs   av.it.:  10.1
      thresh= 1.000E-02 alpha_mix =  0.700 |ddv_scf|^2 =  2.364E-03

      iter #   2 total cpu time :  1717.8 secs   av.it.:  12.5
      thresh= 4.862E-03 alpha_mix =  0.700 |ddv_scf|^2 =  1.779E-02

      iter #   3 total cpu time :  1721.2 secs   av.it.:  11.0
      thresh= 1.000E-02 alpha_mix =  0.700 |ddv_scf|^2 =  1.874E-05

      iter #   4 total cpu time :  1724.2 secs   av.it.:  11.6
      thresh= 4.329E-04 alpha_mix =  0.700 |ddv_scf|^2 =  2.885E-07

      iter #   5 total cpu time :  1727.0 secs   av.it.:  11.2
      thresh= 5.371E-05 alpha_mix =  0.700 |ddv_scf|^2 =  1.280E-09

      iter #   6 total cpu time :  1730.1 secs   av.it.:  12.3
      thresh= 3.578E-06 alpha_mix =  0.700 |ddv_scf|^2 =  2.087E-11

      iter #   7 total cpu time :  1733.0 secs   av.it.:  11.3
      thresh= 4.568E-07 alpha_mix =  0.700 |ddv_scf|^2 =  2.400E-14

      iter #   8 total cpu time :  1735.9 secs   av.it.:  11.8
      thresh= 1.549E-08 alpha_mix =  0.700 |ddv_scf|^2 =  3.326E-16

     End of self-consistent calculation

     Convergence has been achieved


     Representation #   4 modes #   5   6

     Self-consistent Calculation

      iter #   1 total cpu time :  1740.0 secs   av.it.:   6.1
      thresh= 1.000E-02 alpha_mix =  0.700 |ddv_scf|^2 =  3.019E-07

      iter #   2 total cpu time :  1746.4 secs   av.it.:  13.9
      thresh= 5.494E-05 alpha_mix =  0.700 |ddv_scf|^2 =  6.256E-09

      iter #   3 total cpu time :  1752.9 secs   av.it.:  13.8
      thresh= 7.909E-06 alpha_mix =  0.700 |ddv_scf|^2 =  4.730E-10

      iter #   4 total cpu time :  1759.1 secs   av.it.:  12.0
      thresh= 2.175E-06 alpha_mix =  0.700 |ddv_scf|^2 =  3.435E-12

      iter #   5 total cpu time :  1764.9 secs   av.it.:  12.1
      thresh= 1.853E-07 alpha_mix =  0.700 |ddv_scf|^2 =  2.647E-14

      iter #   6 total cpu time :  1770.8 secs   av.it.:  12.5
      thresh= 1.627E-08 alpha_mix =  0.700 |ddv_scf|^2 =  4.052E-17

     End of self-consistent calculation

     Convergence has been achieved

     Number of q in the star =    1
     List of q in the star:
          1   0.000000000   0.000000000  -0.513111151

     Diagonalizing the dynamical matrix

     q = (    0.000000000   0.000000000  -0.513111151 )

 **************************************************************************
     freq (    1) =       5.162168 [THz] =     172.191386 [cm-1]
     freq (    2) =       5.162168 [THz] =     172.191386 [cm-1]
     freq (    3) =       8.221556 [THz] =     274.241586 [cm-1]
     freq (    4) =      15.622623 [THz] =     521.114608 [cm-1]
     freq (    5) =      15.622623 [THz] =     521.114608 [cm-1]
     freq (    6) =      21.808338 [THz] =     727.447838 [cm-1]
 **************************************************************************

     Mode symmetry, D_3h (-62m) point group:

     freq (   1-   2) =        172.2  [cm-1]   --> E'
     freq (   3-   3) =        274.2  [cm-1]   --> A''2
     freq (   4-   5) =        521.1  [cm-1]   --> E''
     freq (   6-   6) =        727.4  [cm-1]   --> A'_1

     Calculation of q =    0.0000000   0.1649572   0.0000000

     Parallelization info
     --------------------
     sticks:   dense  smooth     PW     G-vecs:    dense   smooth      PW
     Min         308     153     50                 7383     2602     498
     Max         309     156     51                 7384     2603     501
     Sum         925     463    151                22151     7807    1497

     Using Slab Decomposition


     Title:
     default


     bravais-lattice index     =            0
     lattice parameter (alat)  =       5.5247  a.u.
     unit-cell volume          =     142.3047 (a.u.)^3
     number of atoms/cell      =            2
     number of atomic types    =            2
     number of electrons       =        18.00
     number of Kohn-Sham states=           13
     kinetic-energy cutoff     =      55.0000  Ry
     charge density cutoff     =     440.0000  Ry
     Exchange-correlation= PBE
                           (   1   4   3   4   0   0   0)

     celldm(1)=   5.524717  celldm(2)=   0.000000  celldm(3)=   0.000000
     celldm(4)=   0.000000  celldm(5)=   0.000000  celldm(6)=   0.000000

     crystal axes: (cart. coord. in units of alat)
               a(1) = (   1.000000   0.000000   0.000000 )
               a(2) = (  -0.500000   0.866025   0.000000 )
               a(3) = (   0.000000   0.000000   0.974448 )

     reciprocal axes: (cart. coord. in units 2 pi/alat)
               b(1) = (  1.000000  0.577350  0.000000 )
               b(2) = (  0.000000  1.154701  0.000000 )
               b(3) = (  0.000000  0.000000  1.026222 )


     PseudoPot. # 1 for W  read from file:
     /home/sl119982/WBC-phase-stability/SSSP_1.1.2_PBE_precision/W_pbe_v1.2.uspp.F.UPF
     MD5 check sum: 9c083fa34c2a2ea0f02f1f893e16e1c8
     Pseudo is Ultrasoft + core correction, Zval = 14.0
     Generated by new atomic code, or converted to UPF format
     Using radial grid of  923 points,  8 beta functions with:
                l(1) =   0
                l(2) =   0
                l(3) =   0
                l(4) =   1
                l(5) =   1
                l(6) =   2
                l(7) =   2
                l(8) =   3
     Q(r) pseudized with  6 coefficients,  rinner =    1.350   1.350   1.350
                                                       1.350   1.350   1.350
                                                       1.350

     PseudoPot. # 2 for C  read from file:
     /home/sl119982/WBC-phase-stability/SSSP_1.1.2_PBE_precision/C.pbe-n-kjpaw_psl.1.0.0.UPF
     MD5 check sum: 5d2aebdfa2cae82b50a7e79e9516da0f
     Pseudo is Projector augmented-wave + core cor, Zval =  4.0
     Generated using "atomic" code by A. Dal Corso  v.5.1
     Shape of augmentation charge: PSQ
     Using radial grid of 1073 points,  4 beta functions with:
                l(1) =   0
                l(2) =   0
                l(3) =   1
                l(4) =   1
     Q(r) pseudized with 0 coefficients


     atomic species   valence    mass     pseudopotential
        W             14.00   183.84000     W ( 1.00)
        C              4.00    12.01100     C ( 1.00)

     12 Sym. Ops. (no inversion) found



   Cartesian axes

     site n.     atom                  positions (alat units)
         1           W   tau(   1) = (   0.0000000   0.0000000   0.0000000  )
         2           C   tau(   2) = (   0.5000000   0.2886751   0.4872239  )

     number of k points=  4620  Methfessel-Paxton smearing, width (Ry)=  0.0019

     Number of k-points >= 100: set verbosity='high' to print them.

     Dense  grid:    22151 G-vectors     FFT dimensions: (  40,  40,  36)

     Smooth grid:     7807 G-vectors     FFT dimensions: (  27,  27,  25)

     Estimated max dynamical RAM per process >      16.37 MB

     Estimated total dynamical RAM >     392.89 MB

     The potential is recalculated from file :
     ./_ph0/WC.save/charge-density


     negative rho (up, down):  6.721E-02 0.000E+00
     Starting wfcs are   17 atomic wfcs
     Checking if some PAW data can be deallocated...

     Band Structure Calculation
     Davidson diagonalization with overlap

     ethr =  5.56E-11,  avg # of iterations = 12.6

     total cpu time spent up to now is      111.1 secs

     End of band structure calculation

     Number of k-points >= 100: set verbosity='high' to print the bands.

     the Fermi energy is    20.2697 ev

     Writing output data file ./_ph0/WC.save/

     default

     bravais-lattice index     =            0
     lattice parameter (alat)  =       5.5247  a.u.
     unit-cell volume          =     142.3047 (a.u.)^3
     number of atoms/cell      =            2
     number of atomic types    =            2
     kinetic-energy cut-off    =      55.0000  Ry
     charge density cut-off    =     440.0000  Ry
     convergence threshold     =      5.0E-15
     beta                      =       0.7000
     number of iterations used =            4
     Exchange-correlation= PBE
                           (   1   4   3   4   0   0   0)


     celldm(1)=    5.52472  celldm(2)=    0.00000  celldm(3)=    0.00000
     celldm(4)=    0.00000  celldm(5)=    0.00000  celldm(6)=    0.00000

     crystal axes: (cart. coord. in units of alat)
               a(1) = (  1.0000  0.0000  0.0000 )
               a(2) = ( -0.5000  0.8660  0.0000 )
               a(3) = (  0.0000  0.0000  0.9744 )

     reciprocal axes: (cart. coord. in units 2 pi/alat)
               b(1) = (  1.0000  0.5774  0.0000 )
               b(2) = (  0.0000  1.1547  0.0000 )
               b(3) = (  0.0000  0.0000  1.0262 )


     Atoms inside the unit cell:

     Cartesian axes

     site n.  atom      mass           positions (alat units)
        1     W  183.8400   tau(    1) = (    0.00000    0.00000    0.00000  )
        2     C   12.0110   tau(    2) = (    0.50000    0.28868    0.48722  )

     Computing dynamical matrix for
                    q = (   0.0000000   0.1649572   0.0000000 )

      4 Sym.Ops. (no q -> -q+G )


     G cutoff =  340.1833  (   7384 G-vectors)     FFT grid: ( 40, 40, 36)
     G cutoff =  170.0917  (   2602 G-vectors)  smooth grid: ( 27, 27, 25)

     number of k points=  4620  Methfessel-Paxton smearing, width (Ry)=  0.0019

     PseudoPot. # 1 for W  read from file:
     /home/sl119982/WBC-phase-stability/SSSP_1.1.2_PBE_precision/W_pbe_v1.2.uspp.F.UPF
     MD5 check sum: 9c083fa34c2a2ea0f02f1f893e16e1c8
     Pseudo is Ultrasoft + core correction, Zval = 14.0
[...]

     default

     bravais-lattice index     =            0
     lattice parameter (alat)  =       5.5247  a.u.
     unit-cell volume          =     142.3047 (a.u.)^3
     number of atoms/cell      =            2
     number of atomic types    =            2
     kinetic-energy cut-off    =      55.0000  Ry
     charge density cut-off    =     440.0000  Ry
     convergence threshold     =      5.0E-15
     beta                      =       0.7000
     number of iterations used =            4
     Exchange-correlation= PBE
                           (   1   4   3   4   0   0   0)


     celldm(1)=    5.52472  celldm(2)=    0.00000  celldm(3)=    0.00000
     celldm(4)=    0.00000  celldm(5)=    0.00000  celldm(6)=    0.00000

     crystal axes: (cart. coord. in units of alat)
               a(1) = (  1.0000  0.0000  0.0000 )
               a(2) = ( -0.5000  0.8660  0.0000 )
               a(3) = (  0.0000  0.0000  0.9744 )

     reciprocal axes: (cart. coord. in units 2 pi/alat)
               b(1) = (  1.0000  0.5774  0.0000 )
               b(2) = (  0.0000  1.1547  0.0000 )
               b(3) = (  0.0000  0.0000  1.0262 )


     Atoms inside the unit cell:

     Cartesian axes

     site n.  atom      mass           positions (alat units)
        1     W  183.8400   tau(    1) = (    0.00000    0.00000    0.00000  )
        2     C   12.0110   tau(    2) = (    0.50000    0.28868    0.48722  )

     Computing dynamical matrix for
                    q = (   0.2857143   0.4948717  -0.5131112 )

      2 Sym.Ops. (no q -> -q+G )


     G cutoff =  340.1833  (   7385 G-vectors)     FFT grid: ( 40, 40, 36)
     G cutoff =  170.0917  (   2602 G-vectors)  smooth grid: ( 27, 27, 25)

     number of k points=  8800  Methfessel-Paxton smearing, width (Ry)=  0.0019

     PseudoPot. # 1 for W  read from file:
     /home/sl119982/WBC-phase-stability/SSSP_1.1.2_PBE_precision/W_pbe_v1.2.uspp.F.UPF
     MD5 check sum: 9c083fa34c2a2ea0f02f1f893e16e1c8
     Pseudo is Ultrasoft + core correction, Zval = 14.0
     Generated by new atomic code, or converted to UPF format
     Using radial grid of  923 points,  8 beta functions with:
                l(1) =   0
                l(2) =   0
                l(3) =   0
                l(4) =   1
                l(5) =   1
                l(6) =   2
                l(7) =   2
                l(8) =   3
     Q(r) pseudized with  6 coefficients,  rinner =    1.350   1.350   1.350
                                                       1.350   1.350   1.350
                                                       1.350

     PseudoPot. # 2 for C  read from file:
     /home/sl119982/WBC-phase-stability/SSSP_1.1.2_PBE_precision/C.pbe-n-kjpaw_psl.1.0.0.UPF
     MD5 check sum: 5d2aebdfa2cae82b50a7e79e9516da0f
     Pseudo is Projector augmented-wave + core cor, Zval =  4.0
     Generated using "atomic" code by A. Dal Corso  v.5.1
     Shape of augmentation charge: PSQ
     Using radial grid of 1073 points,  4 beta functions with:
                l(1) =   0
                l(2) =   0
                l(3) =   1
                l(4) =   1
     Q(r) pseudized with 0 coefficients


     Mode symmetry, C_s (m)     point group:


     Atomic displacements:
     There are    6 irreducible representations

     Representation     1      1 modes -  To be done

     Representation     2      1 modes -  To be done

     Representation     3      1 modes -  To be done

     Representation     4      1 modes -  To be done

     Representation     5      1 modes -  To be done

     Representation     6      1 modes -  To be done



     Alpha used in Ewald sum =   2.8000

     negative rho (up, down):  6.721E-02 0.000E+00
     PHONON       :   1d 0h 6m CPU   1d 1h52m WALL



     Representation #   1 mode #   1

     Self-consistent Calculation

      iter #   1 total cpu time : 93197.0 secs   av.it.:   7.2
      thresh= 1.000E-02 alpha_mix =  0.700 |ddv_scf|^2 =  1.431E-05

      iter #   2 total cpu time : 93235.6 secs   av.it.:  14.0
      thresh= 3.783E-04 alpha_mix =  0.700 |ddv_scf|^2 =  2.933E-05

      iter #   3 total cpu time : 93264.9 secs   av.it.:  13.1
      thresh= 5.416E-04 alpha_mix =  0.700 |ddv_scf|^2 =  6.191E-06

      iter #   4 total cpu time : 93296.2 secs   av.it.:  12.8
      thresh= 2.488E-04 alpha_mix =  0.700 |ddv_scf|^2 =  5.957E-09

      iter #   5 total cpu time : 93328.6 secs   av.it.:  13.4
      thresh= 7.718E-06 alpha_mix =  0.700 |ddv_scf|^2 =  7.202E-10

      iter #   6 total cpu time : 93363.6 secs   av.it.:  13.4
      thresh= 2.684E-06 alpha_mix =  0.700 |ddv_scf|^2 =  3.056E-11

      iter #   7 total cpu time : 93399.1 secs   av.it.:  13.3
      thresh= 5.528E-07 alpha_mix =  0.700 |ddv_scf|^2 =  5.323E-13

      iter #   8 total cpu time : 93429.6 secs   av.it.:  12.3
      thresh= 7.296E-08 alpha_mix =  0.700 |ddv_scf|^2 =  9.541E-14

      iter #   9 total cpu time : 93459.9 secs   av.it.:  13.4
      thresh= 3.089E-08 alpha_mix =  0.700 |ddv_scf|^2 =  4.744E-14

      iter #  10 total cpu time : 93491.3 secs   av.it.:  13.4
      thresh= 2.178E-08 alpha_mix =  0.700 |ddv_scf|^2 =  2.587E-14

      iter #  11 total cpu time : 93520.4 secs   av.it.:  13.0
      thresh= 1.608E-08 alpha_mix =  0.700 |ddv_scf|^2 =  1.842E-16

     End of self-consistent calculation

     Convergence has been achieved


     Representation #   2 mode #   2

     Self-consistent Calculation

      iter #   1 total cpu time : 93546.4 secs   av.it.:   9.4
      thresh= 1.000E-02 alpha_mix =  0.700 |ddv_scf|^2 =  1.091E-04

      iter #   2 total cpu time : 93580.9 secs   av.it.:  14.0
      thresh= 1.045E-03 alpha_mix =  0.700 |ddv_scf|^2 =  1.128E-04

      iter #   3 total cpu time : 93609.2 secs   av.it.:  13.4
      thresh= 1.062E-03 alpha_mix =  0.700 |ddv_scf|^2 =  4.555E-05

      iter #   4 total cpu time : 93642.6 secs   av.it.:  12.5
      thresh= 6.749E-04 alpha_mix =  0.700 |ddv_scf|^2 =  5.214E-08

      iter #   5 total cpu time : 93674.7 secs   av.it.:  13.9
      thresh= 2.283E-05 alpha_mix =  0.700 |ddv_scf|^2 =  2.969E-09

      iter #   6 total cpu time : 93707.4 secs   av.it.:  13.7
      thresh= 5.449E-06 alpha_mix =  0.700 |ddv_scf|^2 =  2.840E-11

      iter #   7 total cpu time : 93738.4 secs   av.it.:  14.0
      thresh= 5.329E-07 alpha_mix =  0.700 |ddv_scf|^2 =  5.423E-13

      iter #   8 total cpu time : 93768.3 secs   av.it.:  13.7
      thresh= 7.364E-08 alpha_mix =  0.700 |ddv_scf|^2 =  4.435E-14

      iter #   9 total cpu time : 93800.8 secs   av.it.:  14.1
      thresh= 2.106E-08 alpha_mix =  0.700 |ddv_scf|^2 =  1.837E-13

      iter #  10 total cpu time : 93829.4 secs   av.it.:  12.6
      thresh= 4.286E-08 alpha_mix =  0.700 |ddv_scf|^2 =  4.760E-15

     End of self-consistent calculation

     Convergence has been achieved


     Representation #   3 mode #   3

     Self-consistent Calculation

      iter #   1 total cpu time : 93855.5 secs   av.it.:   9.3
      thresh= 1.000E-02 alpha_mix =  0.700 |ddv_scf|^2 =  7.748E-05

      iter #   2 total cpu time : 93887.8 secs   av.it.:  13.9
      thresh= 8.802E-04 alpha_mix =  0.700 |ddv_scf|^2 =  4.916E-05

      iter #   3 total cpu time : 93917.5 secs   av.it.:  13.5
      thresh= 7.012E-04 alpha_mix =  0.700 |ddv_scf|^2 =  2.727E-05

      iter #   4 total cpu time : 93948.5 secs   av.it.:  12.4
      thresh= 5.222E-04 alpha_mix =  0.700 |ddv_scf|^2 =  8.389E-08

      iter #   5 total cpu time : 93978.0 secs   av.it.:  13.7
      thresh= 2.896E-05 alpha_mix =  0.700 |ddv_scf|^2 =  4.175E-09

      iter #   6 total cpu time : 94008.9 secs   av.it.:  13.8
      thresh= 6.461E-06 alpha_mix =  0.700 |ddv_scf|^2 =  2.140E-11

      iter #   7 total cpu time : 94042.3 secs   av.it.:  14.0
      thresh= 4.626E-07 alpha_mix =  0.700 |ddv_scf|^2 =  4.521E-13

      iter #   8 total cpu time : 94071.9 secs   av.it.:  13.8
      thresh= 6.724E-08 alpha_mix =  0.700 |ddv_scf|^2 =  5.232E-14

      iter #   9 total cpu time : 94109.3 secs   av.it.:  14.1
      thresh= 2.287E-08 alpha_mix =  0.700 |ddv_scf|^2 =  2.514E-13

      iter #  10 total cpu time : 94138.7 secs   av.it.:  12.5
      thresh= 5.014E-08 alpha_mix =  0.700 |ddv_scf|^2 =  4.380E-15

     End of self-consistent calculation

     Convergence has been achieved


     Representation #   4 mode #   4

     Self-consistent Calculation

      iter #   1 total cpu time : 94163.0 secs   av.it.:   9.1
      thresh= 1.000E-02 alpha_mix =  0.700 |ddv_scf|^2 =  1.186E-04

      iter #   2 total cpu time : 94193.4 secs   av.it.:  13.4
      thresh= 1.089E-03 alpha_mix =  0.700 |ddv_scf|^2 =  7.433E-05

      iter #   3 total cpu time : 94221.5 secs   av.it.:  12.8
      thresh= 8.622E-04 alpha_mix =  0.700 |ddv_scf|^2 =  5.006E-06

      iter #   4 total cpu time : 94249.5 secs   av.it.:  12.4
      thresh= 2.237E-04 alpha_mix =  0.700 |ddv_scf|^2 =  1.085E-08

      iter #   5 total cpu time : 94277.7 secs   av.it.:  13.7
      thresh= 1.042E-05 alpha_mix =  0.700 |ddv_scf|^2 =  5.564E-10

      iter #   6 total cpu time : 94305.6 secs   av.it.:  13.6
      thresh= 2.359E-06 alpha_mix =  0.700 |ddv_scf|^2 =  2.245E-11

      iter #   7 total cpu time : 94333.5 secs   av.it.:  13.1
      thresh= 4.739E-07 alpha_mix =  0.700 |ddv_scf|^2 =  3.874E-13

      iter #   8 total cpu time : 94359.8 secs   av.it.:  12.8
      thresh= 6.224E-08 alpha_mix =  0.700 |ddv_scf|^2 =  7.451E-15

      iter #   9 total cpu time : 94387.8 secs   av.it.:  13.3
      thresh= 8.632E-09 alpha_mix =  0.700 |ddv_scf|^2 =  6.389E-16

     End of self-consistent calculation

     Convergence has been achieved


     Representation #   5 mode #   5

     Self-consistent Calculation

      iter #   1 total cpu time : 94406.2 secs   av.it.:   6.7
      thresh= 1.000E-02 alpha_mix =  0.700 |ddv_scf|^2 =  5.221E-06

      iter #   2 total cpu time : 94435.3 secs   av.it.:  13.1
      thresh= 2.285E-04 alpha_mix =  0.700 |ddv_scf|^2 =  1.196E-06

      iter #   3 total cpu time : 94461.5 secs   av.it.:  13.0
      thresh= 1.094E-04 alpha_mix =  0.700 |ddv_scf|^2 =  6.721E-08

      iter #   4 total cpu time : 94495.7 secs   av.it.:  13.0
      thresh= 2.593E-05 alpha_mix =  0.700 |ddv_scf|^2 =  1.248E-08

      iter #   5 total cpu time : 94522.6 secs   av.it.:  12.7
      thresh= 1.117E-05 alpha_mix =  0.700 |ddv_scf|^2 =  1.224E-09

      iter #   6 total cpu time : 94549.0 secs   av.it.:  12.8
      thresh= 3.499E-06 alpha_mix =  0.700 |ddv_scf|^2 =  7.371E-12

      iter #   7 total cpu time : 94577.7 secs   av.it.:  12.4
      thresh= 2.715E-07 alpha_mix =  0.700 |ddv_scf|^2 =  3.399E-13

      iter #   8 total cpu time : 94602.0 secs   av.it.:  11.3
      thresh= 5.830E-08 alpha_mix =  0.700 |ddv_scf|^2 =  1.865E-14

      iter #   9 total cpu time : 94636.5 secs   av.it.:  13.4
      thresh= 1.366E-08 alpha_mix =  0.700 |ddv_scf|^2 =  5.415E-15

      iter #  10 total cpu time : 94665.6 secs   av.it.:  13.1
      thresh= 7.359E-09 alpha_mix =  0.700 |ddv_scf|^2 =  1.267E-15

     End of self-consistent calculation

     Convergence has been achieved


     Representation #   6 mode #   6

     Self-consistent Calculation

      iter #   1 total cpu time : 94685.6 secs   av.it.:   6.8
      thresh= 1.000E-02 alpha_mix =  0.700 |ddv_scf|^2 =  9.682E-06

      iter #   2 total cpu time : 94716.0 secs   av.it.:  13.2
      thresh= 3.112E-04 alpha_mix =  0.700 |ddv_scf|^2 =  4.336E-06

      iter #   3 total cpu time : 94743.9 secs   av.it.:  12.9
      thresh= 2.082E-04 alpha_mix =  0.700 |ddv_scf|^2 =  3.139E-07

      iter #   4 total cpu time : 94771.6 secs   av.it.:  12.3
      thresh= 5.603E-05 alpha_mix =  0.700 |ddv_scf|^2 =  1.062E-08

      iter #   5 total cpu time : 94800.5 secs   av.it.:  13.1
      thresh= 1.030E-05 alpha_mix =  0.700 |ddv_scf|^2 =  5.289E-10

      iter #   6 total cpu time : 94827.5 secs   av.it.:  12.9
      thresh= 2.300E-06 alpha_mix =  0.700 |ddv_scf|^2 =  7.978E-12

      iter #   7 total cpu time : 94853.4 secs   av.it.:  12.5
      thresh= 2.825E-07 alpha_mix =  0.700 |ddv_scf|^2 =  3.363E-13

      iter #   8 total cpu time : 94877.6 secs   av.it.:  11.7
      thresh= 5.799E-08 alpha_mix =  0.700 |ddv_scf|^2 =  1.531E-14

      iter #   9 total cpu time : 94905.6 secs   av.it.:  13.5
      thresh= 1.237E-08 alpha_mix =  0.700 |ddv_scf|^2 =  5.526E-15

      iter #  10 total cpu time : 94934.2 secs   av.it.:  13.0
      thresh= 7.433E-09 alpha_mix =  0.700 |ddv_scf|^2 =  6.045E-16

     End of self-consistent calculation

     Convergence has been achieved

     Number of q in the star =    6
     List of q in the star:
          1   0.285714286   0.494871659  -0.513111151
          2  -0.285714286   0.494871659  -0.513111151
          3   0.285714286  -0.494871659  -0.513111151
          4  -0.571428571  -0.000000000  -0.513111151
          5   0.571428571   0.000000000  -0.513111151
          6  -0.285714286  -0.494871659  -0.513111151

     Diagonalizing the dynamical matrix

     q = (    0.285714286   0.494871659  -0.513111151 )

 **************************************************************************
     freq (    1) =       6.472792 [THz] =     215.909088 [cm-1]
     freq (    2) =       6.652657 [THz] =     221.908749 [cm-1]
     freq (    3) =       7.231333 [THz] =     241.211319 [cm-1]
     freq (    4) =      19.241645 [THz] =     641.832179 [cm-1]
     freq (    5) =      19.464015 [THz] =     649.249671 [cm-1]
     freq (    6) =      19.926393 [THz] =     664.672932 [cm-1]
 **************************************************************************

     Mode symmetry, C_s (m)     point group:

     freq (   1-   1) =        215.9  [cm-1]   --> A'
     freq (   2-   2) =        221.9  [cm-1]   --> A'
     freq (   3-   3) =        241.2  [cm-1]   --> A''
     freq (   4-   4) =        641.8  [cm-1]   --> A''
     freq (   5-   5) =        649.2  [cm-1]   --> A'
     freq (   6-   6) =        664.7  [cm-1]   --> A''

     init_run     :     14.09s CPU     15.29s WALL (      39 calls)
     electrons    :   2676.16s CPU   2789.22s WALL (      39 calls)

     Called by init_run:
     wfcinit      :      0.01s CPU      0.64s WALL (      39 calls)
     potinit      :      0.93s CPU      1.38s WALL (      39 calls)
     hinit0       :      8.99s CPU      9.03s WALL (      39 calls)

     Called by electrons:
     c_bands      :   2675.27s CPU   2788.28s WALL (      39 calls)
     v_of_rho     :      0.41s CPU      0.44s WALL (      40 calls)
     newd         :      0.22s CPU      0.26s WALL (      40 calls)
     PAW_pot      :      0.34s CPU      0.34s WALL (      40 calls)

     Called by c_bands:
     init_us_2    :    283.22s CPU    293.05s WALL ( 2079766 calls)
     cegterg      :   2057.82s CPU   2117.68s WALL (   48744 calls)

     Called by *egterg:
     cdiaghg      :    259.42s CPU    267.44s WALL (  660798 calls)
     h_psi        :  62145.35s CPU  64410.09s WALL (39933686 calls)
     s_psi        :   2399.77s CPU   2524.86s WALL (80955304 calls)
     g_psi        :     10.91s CPU     11.24s WALL (  612054 calls)

     Called by h_psi:
     h_psi:calbec :   1954.48s CPU   2025.56s WALL (39933686 calls)
     vloc_psi     :  58596.06s CPU  60733.72s WALL (39933686 calls)
     add_vuspsi   :   1185.48s CPU   1244.21s WALL (39933686 calls)

     General routines
     calbec       :   3709.70s CPU   3871.03s WALL (83827830 calls)
     fft          :     29.94s CPU     30.59s WALL (   48369 calls)
     ffts         :     30.36s CPU     32.22s WALL (  156147 calls)
     fftw         :  64900.01s CPU  67359.16s WALL (******** calls)
     interpolate  :      4.77s CPU      4.95s WALL (    5713 calls)
     davcio       :    181.16s CPU   2617.41s WALL ( 9191212 calls)

     Parallel routines

     PHONON       :   1d 0h32m CPU   1d 2h22m WALL

     INITIALIZATION:
     phq_setup    :      1.10s CPU      2.59s WALL (      40 calls)
     phq_init     :    441.36s CPU    455.19s WALL (      40 calls)

     phq_init     :    441.36s CPU    455.19s WALL (      40 calls)
     set_drhoc    :     12.06s CPU     12.07s WALL (     120 calls)
     init_vloc    :      0.87s CPU      0.87s WALL (      40 calls)
     init_us_1    :      6.30s CPU      6.37s WALL (      40 calls)
     newd         :      0.22s CPU      0.26s WALL (      40 calls)
     dvanqq       :     18.49s CPU     18.57s WALL (      40 calls)
     drho         :    357.45s CPU    368.05s WALL (      40 calls)

     DYNAMICAL MATRIX:
     dynmat0      :     45.89s CPU     47.82s WALL (      40 calls)
     phqscf       :  85182.42s CPU  91517.54s WALL (      40 calls)
     dynmatrix    :      0.04s CPU      1.21s WALL (      40 calls)

     phqscf       :  85182.42s CPU  91517.54s WALL (      40 calls)
     solve_linter :  85079.19s CPU  91371.97s WALL (     230 calls)
     drhodv       :    102.78s CPU    108.05s WALL (     230 calls)

     dynmat0      :     45.89s CPU     47.82s WALL (      40 calls)
     dynmat_us    :     37.24s CPU     38.30s WALL (      40 calls)
     d2ionq       :      0.07s CPU      0.07s WALL (      40 calls)
     dynmatcc     :      8.50s CPU      8.52s WALL (      40 calls)

     dynmat_us    :     37.24s CPU     38.30s WALL (      40 calls)
     addusdynmat  :      0.00s CPU      0.00s WALL (      40 calls)

     phqscf       :  85182.42s CPU  91517.54s WALL (      40 calls)
     solve_linter :  85079.19s CPU  91371.97s WALL (     230 calls)

     solve_linter :  85079.19s CPU  91371.97s WALL (     230 calls)
     dvqpsi_us    :    660.39s CPU    682.60s WALL (  146598 calls)
     ortho        :    388.67s CPU    402.64s WALL ( 1797474 calls)
     cgsolve      :  68332.21s CPU  70875.53s WALL ( 1797474 calls)
     incdrhoscf   :   5695.29s CPU   5931.04s WALL ( 1797474 calls)
     addusddens   :    211.42s CPU    225.26s WALL (    2860 calls)
     vpsifft      :   4056.02s CPU   4284.49s WALL ( 1650876 calls)
     dv_of_drho   :     23.88s CPU     24.33s WALL (    2695 calls)
     mix_pot      :    113.15s CPU    500.95s WALL (    2630 calls)
     ef_shift     :      0.05s CPU      0.07s WALL (      31 calls)
     localdos     :      0.77s CPU      0.78s WALL (       4 calls)
     psymdvscf    :     13.71s CPU     14.22s WALL (    1647 calls)
     newdq        :    204.21s CPU    204.92s WALL (    2630 calls)
     adddvscf     :    205.72s CPU    213.91s WALL ( 1650876 calls)
     drhodvus     :      0.48s CPU      0.58s WALL (     230 calls)

     dvqpsi_us    :    660.39s CPU    682.60s WALL (  146598 calls)
     dvqpsi_us_on :    118.41s CPU    120.84s WALL (  146598 calls)

     cgsolve      :  68332.21s CPU  70875.53s WALL ( 1797474 calls)
     ch_psi       :  66824.62s CPU  69280.37s WALL (39224144 calls)

     ch_psi       :  66824.62s CPU  69280.37s WALL (39224144 calls)
     h_psi        :  62145.35s CPU  64410.09s WALL (39933686 calls)
     last         :   4734.04s CPU   4928.31s WALL (39224144 calls)

     h_psi        :  62145.35s CPU  64410.09s WALL (39933686 calls)
     add_vuspsi   :   1185.48s CPU   1244.21s WALL (39933686 calls)

     incdrhoscf   :   5695.29s CPU   5931.04s WALL ( 1797474 calls)
     addusdbec    :    162.04s CPU    166.38s WALL ( 1944072 calls)

     drhodvus     :      0.48s CPU      0.58s WALL (     230 calls)

      General routines
     calbec       :   3709.70s CPU   3871.03s WALL (83827830 calls)
     fft          :     29.94s CPU     30.59s WALL (   48369 calls)
     ffts         :     30.36s CPU     32.22s WALL (  156147 calls)
     fftw         :  64900.01s CPU  67359.16s WALL (******** calls)
     davcio       :    181.16s CPU   2617.41s WALL ( 9191212 calls)
     write_rec    :      3.46s CPU    424.89s WALL (    2860 calls)


     PHONON       :   1d 0h32m CPU   1d 2h22m WALL


   This run was terminated on:  14:37:47  21Dec2021

=------------------------------------------------------------------------------=
   JOB DONE.
=------------------------------------------------------------------------------=
