288  
108  

1    
  0.0050000042454612   0.0086602515867248   0.0000000000000000
  -0.0017379115   -0.0030107363   -0.0000071057
   0.0000203985    0.0000150337   -0.0000033257
   0.0000017485    0.0000006637    0.0000006743
   0.0000207785    0.0000147237    0.0000028043
   0.0000000285    0.0000018437    0.0000005943
   0.0000016985    0.0000253937    0.0000017343
   0.0000041485    0.0000058737   -0.0000041657
   0.0000013785    0.0000022737    0.0000007643
   0.0000036885    0.0000063637    0.0000064143
   0.0000028985    0.0000248037   -0.0000033857
   0.0000030485    0.0000012737   -0.0000014057
   0.0000019585    0.0000010137    0.0000007343
   0.0000000785    0.0000016237    0.0000004043
   0.0000014385    0.0000024837   -0.0000006957
  -0.0000000515    0.0000031437   -0.0000014657
   0.0000010385    0.0000024037    0.0000007643
   0.0001499185   -0.0000223563   -0.0000015557
   0.0000000185   -0.0000006063   -0.0000005257
   0.0001517985   -0.0001021463   -0.0000057957
   0.0000889685   -0.0000627863    0.0000047743
  -0.0000004115   -0.0000000263    0.0000010243
  -0.0000001215    0.0000103137   -0.0000039857
   0.0000000085   -0.0000007363    0.0000003943
  -0.0000001315   -0.0000006663   -0.0000001257
   0.0000001385   -0.0000084663    0.0000014843
   0.0000004085   -0.0000005163    0.0000001143
   0.0000002185   -0.0000000663   -0.0000006257
  -0.0000000815   -0.0000001963   -0.0000012857
  -0.0000006915   -0.0000006763   -0.0000000057
   0.0000157285    0.0000004137    0.0000008743
  -0.0000005215   -0.0000008463   -0.0000005357
  -0.0000005015   -0.0000006363   -0.0000003157
  -0.0000964915    0.0000446037    0.0000046443
  -0.0000077015   -0.0000042863    0.0000024443
  -0.0000962315    0.0001208837   -0.0000003257
  -0.0000004615   -0.0000008763   -0.0000005057
  -0.0001602215    0.0000797837   -0.0000067057
  -0.0000076815    0.0000133337    0.0000011643
  -0.0000005015   -0.0000003863    0.0000004143
  -0.0000009815   -0.0000003363    0.0000004643
  -0.0000003015   -0.0000010063    0.0000002143
   0.0000090985    0.0000053337   -0.0000029057
  -0.0000002215   -0.0000007563   -0.0000002557
  -0.0000002815   -0.0000007563   -0.0000006157
  -0.0000005715    0.0000001737   -0.0000012057
  -0.0000002015   -0.0000000663    0.0000009043
  -0.0000003315   -0.0000001963   -0.0000000057
  -0.0000003415   -0.0000003563    0.0000004343
  -0.0000000915   -0.0000001663    0.0000005443
  -0.0000000815   -0.0000002163    0.0000004043
  -0.0000008215   -0.0000015563    0.0000005643
   0.0000002185    0.0000001737    0.0000000443
  -0.0000006015   -0.0000004063   -0.0000008957
  -0.0000002115   -0.0000002963   -0.0000004257
   0.0000002985   -0.0000019363    0.0000016543
  -0.0000004915   -0.0000009963    0.0000000643
  -0.0000005715   -0.0000015463   -0.0000006157
   0.0000011885   -0.0000001563   -0.0000004657
   0.0000001085   -0.0000006863    0.0000005543
   0.0000001385   -0.0000008763    0.0000009943
  -0.0000000715   -0.0000001663   -0.0000004557
  -0.0000001715   -0.0000001463   -0.0000001057
  -0.0000008315   -0.0000001963   -0.0000003557
   0.0000002185   -0.0000005163    0.0000008243
  -0.0000002115   -0.0000000963    0.0000008243
   0.0000003885    0.0000001137   -0.0000002757
   0.0000001385   -0.0000000263    0.0000000143
  -0.0000011215    0.0000004337   -0.0000004457
  -0.0000006715   -0.0000003563    0.0000008843
  -0.0000005115   -0.0000007963   -0.0000004957
  -0.0000016915   -0.0000001363    0.0000016343
  -0.0000011215   -0.0000015863   -0.0000012157
  -0.0000002015   -0.0000002963    0.0000009543
   0.0000003485   -0.0000002363   -0.0000006557
  -0.0000003415    0.0000000237   -0.0000005557
  -0.0000003115    0.0000000137   -0.0000009257
  -0.0000003915   -0.0000006663    0.0000008343
   0.0000001185    0.0000001637    0.0000000543
  -0.0000003515    0.0000002237    0.0000001943
  -0.0000003715    0.0000000037    0.0000003443
   0.0000003085    0.0000001437   -0.0000007357
   0.0000009685    0.0000005737   -0.0000002857
   0.0000002385    0.0000014537    0.0000009043
   0.0000003685    0.0000001837    0.0000000143
   0.0000003485    0.0000003537    0.0000005643
   0.0000014385    0.0000003037   -0.0000006757
  -0.0000003915    0.0000010737   -0.0000002757
   0.0000013985    0.0000041437   -0.0000006057
   0.0000002185    0.0000008637    0.0000002143
   0.0000005185    0.0000011737    0.0000003643
   0.0000004585   -0.0000002763   -0.0000017657
  -0.0000001915    0.0000007437    0.0000006443
   0.0000000685    0.0000001437    0.0000001343
   0.0000005385    0.0000000337   -0.0000006557
   0.0000002885    0.0000009137    0.0000007243
   0.0000002385    0.0000009937   -0.0000000557
  -0.0000454115    0.0004768737    0.0003252143
  -0.0000008015   -0.0000007863    0.0000002343
  -0.0000552815   -0.0000045663   -0.0000091057
  -0.0000000415   -0.0000000263   -0.0000000457
  -0.0000008815    0.0000008237    0.0000013443
   0.0000000285   -0.0000002963    0.0000003243
  -0.0000065815    0.0000174737   -0.0000035657
   0.0000000585    0.0000014137    0.0000001843
   0.0000142485   -0.0000087663    0.0000109343
  -0.0000014915   -0.0000017063   -0.0000011457
  -0.0000002915   -0.0000000763    0.0000000443
  -0.0000001515   -0.0000003363   -0.0000002657
   0.0000004085   -0.0000005363   -0.0000004357
   0.0000001485   -0.0000001863    0.0000003243
  -0.0000000815   -0.0000001763    0.0000002643
   0.0000000985    0.0000000637    0.0000003543
  -0.0000006815    0.0000001637   -0.0000005057
   0.0004352585    0.0001983437    0.0003243343
   0.0000182885    0.0000025137   -0.0000030957
   0.0000233885   -0.0000492963   -0.0000088757
  -0.0000000315    0.0000001637    0.0000003343
  -0.0000144715    0.0000081337    0.0000097443
   0.0000012885   -0.0000006663    0.0000013943
   0.0000000985   -0.0000003463   -0.0000000557
  -0.0000001815    0.0000000337    0.0000002043
  -0.0000008515   -0.0000024763   -0.0000009857
  -0.0000004715   -0.0000010963    0.0000000143
  -0.0000002615   -0.0000000763    0.0000005643
  -0.0000001315   -0.0000002163    0.0000002343
   0.0000012685    0.0000006137    0.0000003743
  -0.0000001215   -0.0000002363   -0.0000001757
  -0.0000000015   -0.0000000763    0.0000000843
  -0.0000032215    0.0000061137   -0.0000060157
   0.0004275185    0.0007390837   -0.0006288557
   0.0000000085   -0.0000000163   -0.0000002257
   0.0000235485    0.0000395337    0.0000184843
   0.0000014985   -0.0000002363   -0.0000000657
  -0.0000003515    0.0000000437   -0.0000001457
   0.0000066985    0.0000003137   -0.0000064457
  -0.0000003115    0.0000007037    0.0000006643
  -0.0000000915   -0.0000001563   -0.0000002257
   0.0000006985    0.0000001037    0.0000002943
  -0.0000004915   -0.0000006163   -0.0000001057
   0.0000002285   -0.0000003163   -0.0000000857
  -0.0000009315    0.0000011137   -0.0000001557
  -0.0000002315   -0.0000005463   -0.0000006757
   0.0000000385    0.0000000337   -0.0000001657
  -0.0000001215   -0.0000001563   -0.0000001757
  -0.0000012515    0.0000005937   -0.0000000857
   0.0004383185    0.0001920737   -0.0003007957
   0.0000137685    0.0000008737    0.0000028443
   0.0000259885   -0.0000506463    0.0000102543
   0.0000000185    0.0000000037    0.0000002043
  -0.0000093115    0.0000050837   -0.0000103957
   0.0000005885   -0.0000008863   -0.0000011657
  -0.0000002415    0.0000003337    0.0000001643
  -0.0000003315    0.0000001037   -0.0000001057
  -0.0000000915   -0.0000032163    0.0000040843
  -0.0000000715   -0.0000007963    0.0000005043
  -0.0000006015   -0.0000001963   -0.0000001857
   0.0000000085    0.0000003737    0.0000001843
   0.0000011185    0.0000007237   -0.0000007557
  -0.0000002015    0.0000000037    0.0000003643
   0.0000000085    0.0000000837   -0.0000001357
  -0.0000542715    0.0004796437   -0.0003029557
  -0.0000573615   -0.0000037163    0.0000106543
  -0.0000007415   -0.0000008063    0.0000010343
  -0.0000012115    0.0000000837   -0.0000013657
   0.0000002185    0.0000003137   -0.0000000157
   0.0000003585   -0.0000003463   -0.0000002957
  -0.0000057815    0.0000133437    0.0000045043
   0.0000002285    0.0000010337   -0.0000007857
   0.0000085585   -0.0000053463   -0.0000103157
  -0.0000028315   -0.0000021363    0.0000035243
   0.0000002685   -0.0000001463   -0.0000000057
   0.0000001485   -0.0000001363    0.0000005043
   0.0000010185   -0.0000006263   -0.0000007757
   0.0000002985   -0.0000000963   -0.0000000557
   0.0000003685    0.0000000937    0.0000002843
   0.0000000485    0.0000001537   -0.0000000657
   0.0000021185    0.0000034737    0.0000047643
   0.0004278685    0.0007419337    0.0005970543
  -0.0000001215    0.0000001037   -0.0000001757
   0.0000234785    0.0000424037   -0.0000282957
   0.0000021485   -0.0000005763   -0.0000016957
  -0.0000001615   -0.0000001863   -0.0000000357
   0.0000022285    0.0000044037    0.0000063443
  -0.0000001315   -0.0000002563    0.0000008043
  -0.0000002715    0.0000004337    0.0000003943
   0.0000006785    0.0000001537    0.0000001343
   0.0000000685   -0.0000004663    0.0000004843
  -0.0000015215    0.0000018337   -0.0000023357
   0.0000001585   -0.0000001563    0.0000000343
  -0.0000004115   -0.0000004763    0.0000004143
  -0.0000002715   -0.0000002163   -0.0000000057
  -0.0000001415   -0.0000002263    0.0000007643
   0.0000000685   -0.0000000563   -0.0000003157
  -0.0000001215   -0.0000000063   -0.0000002657
  -0.0000002015    0.0000002537    0.0000007143
   0.0000003785   -0.0000005263   -0.0000005157
  -0.0000000715    0.0000000837   -0.0000003557
  -0.0000005215   -0.0000004963   -0.0000012857
   0.0000000285   -0.0000001563   -0.0000008457
   0.0000003385    0.0000002337    0.0000000243
   0.0000000385   -0.0000006763   -0.0000037257
   0.0000000385   -0.0000002963   -0.0000001257
  -0.0000001315    0.0000001137    0.0000000743
  -0.0000000215   -0.0000000263    0.0000001943
   0.0000002785    0.0000003937    0.0000001343
   0.0000001685   -0.0000004763   -0.0000004057
   0.0000004085   -0.0000001663    0.0000005243
  -0.0000004515    0.0000003637   -0.0000004157
   0.0000002585   -0.0000000563    0.0000001943
  -0.0000009415   -0.0000000363    0.0000023843
  -0.0000000615   -0.0000002363   -0.0000008557
   0.0000002585   -0.0000000963    0.0000005843
  -0.0000006315   -0.0000001163    0.0000009343
  -0.0000002115    0.0000002237   -0.0000002357
   0.0000002385   -0.0000000863   -0.0000002757
   0.0000001785   -0.0000001963    0.0000013143
  -0.0000005915   -0.0000006463    0.0000007743
   0.0000000485    0.0000000337    0.0000029343
   0.0000002885   -0.0000001463    0.0000006143
   0.0000008785   -0.0000005163    0.0000023243
  -0.0000002915    0.0000001037   -0.0000003957
  -0.0000000215   -0.0000000363   -0.0000000357
   0.0000005585    0.0000006437   -0.0000000557
  -0.0000003915    0.0000000637    0.0000003843
   0.0000004185   -0.0000000663   -0.0000002357
   0.0000001985   -0.0000004963   -0.0000001757
  -0.0000004915   -0.0000000763   -0.0000005457
  -0.0000002915    0.0000004937   -0.0000000157
  -0.0000000415    0.0000002737    0.0000000843
   0.0000001485    0.0000006837   -0.0000006157
   0.0000001585    0.0000001937    0.0000004243
  -0.0000000415    0.0000000837    0.0000006443
  -0.0000002015   -0.0000000963   -0.0000008257
  -0.0000000515    0.0000003737   -0.0000023157
  -0.0000002915    0.0000005737    0.0000000043
  -0.0000001915   -0.0000010663   -0.0000009457
   0.0000000485   -0.0000003163   -0.0000004457
   0.0000002485    0.0000001037   -0.0000003657
   0.0000001885    0.0000006637   -0.0000000757
  -0.0000000915    0.0000002137   -0.0000003357
   0.0000000485   -0.0000000263    0.0000000143
   0.0000000085   -0.0000000363    0.0000000343
  -0.0000000315   -0.0000000863    0.0000001343
  -0.0000001415   -0.0000000663   -0.0000000257
  -0.0000000515   -0.0000000463   -0.0000000057
   0.0000000285   -0.0000000163    0.0000001443
  -0.0000000815   -0.0000000763   -0.0000002957
  -0.0000000315    0.0000000837    0.0000001043
  -0.0000000215    0.0000000137   -0.0000000257
  -0.0000000915   -0.0000000163    0.0000000043
   0.0000000885    0.0000000137   -0.0000000457
  -0.0000000615    0.0000000537   -0.0000000057
   0.0000000185    0.0000000637   -0.0000000457
   0.0000000185    0.0000000937    0.0000001643
  -0.0000000815    0.0000000037    0.0000000243
   0.0000000585   -0.0000000163   -0.0000000957
  -0.0000000015    0.0000000337   -0.0000001057
   0.0000000885   -0.0000000363   -0.0000001057
   0.0000001185   -0.0000000063    0.0000001543
  -0.0000000115   -0.0000000463   -0.0000000157
   0.0000000585    0.0000000037    0.0000000143
  -0.0000000015    0.0000000437   -0.0000000057
  -0.0000000915    0.0000000137   -0.0000001357
  -0.0000000115    0.0000000037   -0.0000000557
   0.0000001185   -0.0000001363   -0.0000000257
   0.0000000485   -0.0000001163   -0.0000002257
   0.0000000385   -0.0000000863    0.0000000943
   0.0000000385   -0.0000000163    0.0000000543
  -0.0000000015    0.0000000737    0.0000000243
  -0.0000000915   -0.0000000463   -0.0000000557
   0.0000000585   -0.0000000363    0.0000000743
  -0.0000000415    0.0000000337   -0.0000000157
  -0.0000000015    0.0000000337    0.0000000443
   0.0000001085   -0.0000000363    0.0000003443
   0.0000000385    0.0000000337   -0.0000000157
   0.0000000785    0.0000001737    0.0000000943
   0.0000000585   -0.0000000363    0.0000002043
  -0.0000000115    0.0000000137    0.0000000843
   0.0000000385    0.0000001137    0.0000003643
   0.0000000985    0.0000001237    0.0000000943
   0.0000001285   -0.0000000563    0.0000004643
   0.0000000585   -0.0000000163    0.0000001643
   0.0000000385   -0.0000000963    0.0000001543
  -0.0000000115   -0.0000000163    0.0000001443
   0.0000000085    0.0000001637    0.0000001443
  -0.0000000415    0.0000000737    0.0000000643
  -0.0000000715    0.0000000537    0.0000002843
  -0.0000000315    0.0000000237    0.0000001143

1    
 -0.0050000042454612  -0.0086602515867248   0.0000000000000000
   0.0017559792    0.0030364308    0.0000067652
  -0.0000201808   -0.0000149992    0.0000033652
  -0.0000017508   -0.0000006492   -0.0000006648
  -0.0000213008   -0.0000144492   -0.0000028048
  -0.0000000408   -0.0000018192   -0.0000005748
  -0.0000012108   -0.0000256892   -0.0000017148
  -0.0000041908   -0.0000060292    0.0000043052
  -0.0000014108   -0.0000022892   -0.0000007548
  -0.0000035808   -0.0000061292   -0.0000065248
  -0.0000029808   -0.0000245592    0.0000034252
  -0.0000030208   -0.0000012392    0.0000014252
  -0.0000019708   -0.0000010092   -0.0000007248
  -0.0000000808   -0.0000016192   -0.0000003948
  -0.0000014608   -0.0000024892    0.0000006952
   0.0000000392   -0.0000030892    0.0000015052
  -0.0000010308   -0.0000024292   -0.0000007648
  -0.0001501308    0.0000225308    0.0000014752
  -0.0000000508    0.0000006708    0.0000005152
  -0.0001550308    0.0000973208    0.0000058152
  -0.0000847708    0.0000627008   -0.0000048048
   0.0000004492    0.0000000908   -0.0000010348
   0.0000001692   -0.0000097992    0.0000039352
  -0.0000000308    0.0000007808   -0.0000003848
   0.0000001392    0.0000006808    0.0000001252
   0.0000000592    0.0000085808   -0.0000015548
  -0.0000004008    0.0000005308   -0.0000001148
  -0.0000001708    0.0000000908    0.0000006252
   0.0000000992    0.0000002008    0.0000012852
   0.0000007092    0.0000007008    0.0000000152
  -0.0000163008   -0.0000006492   -0.0000008548
   0.0000005392    0.0000008908    0.0000005352
   0.0000005192    0.0000006708    0.0000003252
   0.0000943092   -0.0000410392   -0.0000047448
   0.0000076892    0.0000045108   -0.0000025248
   0.0000964192   -0.0001209892    0.0000002652
   0.0000004792    0.0000009108    0.0000005252
   0.0001576092   -0.0000850592    0.0000067952
   0.0000077492   -0.0000139092   -0.0000011548
   0.0000004892    0.0000003708   -0.0000004148
   0.0000009992    0.0000003408   -0.0000004448
   0.0000003092    0.0000010308   -0.0000002148
  -0.0000086908   -0.0000050392    0.0000028852
   0.0000002092    0.0000007708    0.0000002452
   0.0000002992    0.0000007708    0.0000006252
   0.0000005592   -0.0000001392    0.0000012052
   0.0000002092    0.0000001308   -0.0000009148
   0.0000002992    0.0000002208    0.0000000252
   0.0000003292    0.0000003708   -0.0000004448
   0.0000000892    0.0000001708   -0.0000005548
   0.0000000692    0.0000002108   -0.0000004148
   0.0000008292    0.0000015708   -0.0000005348
  -0.0000002208   -0.0000001592   -0.0000000448
   0.0000005892    0.0000004008    0.0000009352
   0.0000001992    0.0000003208    0.0000004452
  -0.0000003008    0.0000019708   -0.0000016748
   0.0000004892    0.0000010008   -0.0000000548
   0.0000005592    0.0000015608    0.0000006552
  -0.0000012008    0.0000001708    0.0000004552
  -0.0000001308    0.0000007008   -0.0000005448
  -0.0000001408    0.0000008808   -0.0000009748
   0.0000000592    0.0000001908    0.0000004452
   0.0000001792    0.0000001608    0.0000001152
   0.0000008292    0.0000002208    0.0000003752
  -0.0000002208    0.0000005408   -0.0000008248
   0.0000002192    0.0000001008   -0.0000008348
  -0.0000003808   -0.0000001092    0.0000002752
  -0.0000001508    0.0000000408   -0.0000000048
   0.0000011292   -0.0000004192    0.0000004552
   0.0000006692    0.0000003708   -0.0000008648
   0.0000005192    0.0000008208    0.0000005052
   0.0000017192    0.0000001408   -0.0000016248
   0.0000011292    0.0000016008    0.0000012252
   0.0000002092    0.0000002908   -0.0000009348
  -0.0000003508    0.0000002608    0.0000006752
   0.0000003392    0.0000000008    0.0000005552
   0.0000003092   -0.0000000092    0.0000009652
   0.0000003792    0.0000006708   -0.0000007948
  -0.0000001108   -0.0000001492   -0.0000000448
   0.0000003492   -0.0000001992   -0.0000001948
   0.0000003692    0.0000000008   -0.0000003348
  -0.0000003108   -0.0000001192    0.0000007152
  -0.0000009808   -0.0000005492    0.0000002752
  -0.0000002508   -0.0000014492   -0.0000008948
  -0.0000004008   -0.0000001792   -0.0000000048
  -0.0000003708   -0.0000003392   -0.0000005748
  -0.0000014708   -0.0000002792    0.0000007052
   0.0000003992   -0.0000010792    0.0000003152
  -0.0000014408   -0.0000041392    0.0000006652
  -0.0000002408   -0.0000008592   -0.0000002048
  -0.0000005408   -0.0000011692   -0.0000003548
  -0.0000004608    0.0000002808    0.0000017952
   0.0000001792   -0.0000007492   -0.0000006448
  -0.0000000708   -0.0000001592   -0.0000001348
  -0.0000005608   -0.0000000092    0.0000006552
  -0.0000003008   -0.0000008892   -0.0000007048
  -0.0000002608   -0.0000009792    0.0000000552
   0.0000405792   -0.0004695692   -0.0003172448
   0.0000007692    0.0000008208   -0.0000001948
   0.0000555292    0.0000048808    0.0000093252
   0.0000000392    0.0000000408    0.0000000452
   0.0000008692   -0.0000007892   -0.0000013548
  -0.0000000408    0.0000003108   -0.0000003348
   0.0000066992   -0.0000173792    0.0000035052
  -0.0000000708   -0.0000013892   -0.0000001848
  -0.0000144508    0.0000087708   -0.0000107648
   0.0000014192    0.0000017408    0.0000011352
   0.0000002792    0.0000000908   -0.0000000448
   0.0000001492    0.0000003408    0.0000002752
  -0.0000004208    0.0000005608    0.0000004352
  -0.0000001408    0.0000001808   -0.0000003348
   0.0000000892    0.0000001908   -0.0000002548
  -0.0000000908   -0.0000000592   -0.0000003548
   0.0000006992   -0.0000001492    0.0000005052
  -0.0004265408   -0.0001988392   -0.0003163548
  -0.0000182908   -0.0000023592    0.0000030352
  -0.0000232608    0.0000496808    0.0000090752
   0.0000000192   -0.0000001392   -0.0000003548
   0.0000145592   -0.0000083292   -0.0000095748
  -0.0000012608    0.0000006808   -0.0000014348
  -0.0000001008    0.0000003508    0.0000000452
   0.0000001592   -0.0000000192   -0.0000002148
   0.0000008992    0.0000024408    0.0000009752
   0.0000005092    0.0000010908    0.0000000552
   0.0000002592    0.0000000808   -0.0000005648
   0.0000001292    0.0000002408   -0.0000002248
  -0.0000012608   -0.0000006192   -0.0000003648
   0.0000001092    0.0000002508    0.0000001852
   0.0000000092    0.0000000808   -0.0000000748
   0.0000033792   -0.0000060892    0.0000056952
  -0.0004389908   -0.0007588492    0.0006524752
  -0.0000000108    0.0000000208    0.0000002152
  -0.0000232108   -0.0000389392   -0.0000179848
  -0.0000015208    0.0000002408    0.0000000852
   0.0000003592   -0.0000000192    0.0000001352
  -0.0000067708   -0.0000001592    0.0000060952
   0.0000003092   -0.0000006792   -0.0000006548
   0.0000000892    0.0000001908    0.0000002452
  -0.0000006808   -0.0000000892   -0.0000002948
   0.0000004792    0.0000006308    0.0000000952
  -0.0000002208    0.0000003308    0.0000000952
   0.0000009192   -0.0000011492    0.0000001952
   0.0000002292    0.0000005508    0.0000006852
  -0.0000000408   -0.0000000192    0.0000001652
   0.0000001192    0.0000001708    0.0000001852
   0.0000012492   -0.0000005992    0.0000000952
  -0.0004296708   -0.0001925692    0.0002920352
  -0.0000136508   -0.0000008592   -0.0000027048
  -0.0000258408    0.0000511008   -0.0000105848
  -0.0000000208    0.0000000208   -0.0000001948
   0.0000094792   -0.0000051192    0.0000103752
  -0.0000005608    0.0000009008    0.0000011852
   0.0000002492   -0.0000003192   -0.0000001348
   0.0000003092   -0.0000000792    0.0000001252
   0.0000001292    0.0000031808   -0.0000040848
   0.0000000992    0.0000008008   -0.0000005248
   0.0000006092    0.0000002008    0.0000002152
  -0.0000000208   -0.0000003692   -0.0000001848
  -0.0000011208   -0.0000007392    0.0000007652
   0.0000001992    0.0000000108   -0.0000003248
  -0.0000000008   -0.0000000692    0.0000001752
   0.0000494292   -0.0004723692    0.0002942652
   0.0000576792    0.0000040308   -0.0000110248
   0.0000007292    0.0000008708   -0.0000010448
   0.0000012192   -0.0000000592    0.0000013652
  -0.0000002208   -0.0000003292    0.0000000152
  -0.0000003608    0.0000003908    0.0000003052
   0.0000057592   -0.0000131892   -0.0000043248
  -0.0000002608   -0.0000010192    0.0000007952
  -0.0000087008    0.0000055008    0.0000102952
   0.0000027892    0.0000021508   -0.0000035048
  -0.0000002908    0.0000001708    0.0000000352
  -0.0000001608    0.0000001808   -0.0000004848
  -0.0000010408    0.0000006508    0.0000008152
  -0.0000003108    0.0000001108    0.0000001052
  -0.0000003808   -0.0000000992   -0.0000002748
  -0.0000000308   -0.0000001492    0.0000000952
  -0.0000019908   -0.0000035392   -0.0000043848
  -0.0004393808   -0.0007618392   -0.0006211048
   0.0000001092   -0.0000001092    0.0000001752
  -0.0000231808   -0.0000419092    0.0000275552
  -0.0000021608    0.0000005808    0.0000016852
   0.0000001592    0.0000002108    0.0000000252
  -0.0000023308   -0.0000043592   -0.0000059548
   0.0000001392    0.0000002708   -0.0000007848
   0.0000002692   -0.0000004092   -0.0000003748
  -0.0000006608   -0.0000001392   -0.0000001148
  -0.0000000808    0.0000004408   -0.0000004448
   0.0000015192   -0.0000018392    0.0000023452
  -0.0000001508    0.0000001508   -0.0000000248
   0.0000004192    0.0000005008   -0.0000003948
   0.0000002792    0.0000002208    0.0000000252
   0.0000001492    0.0000002608   -0.0000007448
  -0.0000000708    0.0000000508    0.0000003252
   0.0000001292    0.0000000008    0.0000002952
   0.0000002092   -0.0000002392   -0.0000007348
  -0.0000003708    0.0000005308    0.0000005552
   0.0000000492   -0.0000000492    0.0000003652
   0.0000005392    0.0000005008    0.0000013152
  -0.0000000308    0.0000001808    0.0000008652
  -0.0000003508   -0.0000002292    0.0000000052
  -0.0000000508    0.0000006808    0.0000037452
  -0.0000000208    0.0000003108    0.0000001352
   0.0000001392   -0.0000000992   -0.0000000548
   0.0000000192    0.0000000408   -0.0000001848
  -0.0000002808   -0.0000004092   -0.0000001248
  -0.0000001508    0.0000004808    0.0000004252
  -0.0000004108    0.0000001708   -0.0000005148
   0.0000004492   -0.0000003592    0.0000004152
  -0.0000002808    0.0000000708   -0.0000001948
   0.0000009392    0.0000000508   -0.0000023748
   0.0000000792    0.0000002508    0.0000008652
  -0.0000002908    0.0000001408   -0.0000005748
   0.0000006392    0.0000001308   -0.0000009248
   0.0000002192   -0.0000002492    0.0000002552
  -0.0000002408    0.0000001208    0.0000002952
  -0.0000001808    0.0000002108   -0.0000013248
   0.0000005892    0.0000006708   -0.0000007748
  -0.0000000708   -0.0000000392   -0.0000029748
  -0.0000002808    0.0000001408   -0.0000005948
  -0.0000008808    0.0000005708   -0.0000022948
   0.0000002792   -0.0000000892    0.0000004252
   0.0000000092    0.0000000808    0.0000000352
  -0.0000005708   -0.0000006392    0.0000000652
   0.0000003892   -0.0000000692   -0.0000003548
  -0.0000004308    0.0000000908    0.0000002252
  -0.0000002108    0.0000005208    0.0000001752
   0.0000004892    0.0000001008    0.0000005652
   0.0000002892   -0.0000004692    0.0000000252
   0.0000000292   -0.0000002792   -0.0000000948
  -0.0000001608   -0.0000006692    0.0000006252
  -0.0000001708   -0.0000001792   -0.0000004248
   0.0000000192   -0.0000000692   -0.0000006448
   0.0000001992    0.0000001108    0.0000008252
   0.0000000192   -0.0000003792    0.0000023652
   0.0000002792   -0.0000005492   -0.0000000048
   0.0000001892    0.0000010908    0.0000009652
  -0.0000000608    0.0000003208    0.0000004652
  -0.0000002608   -0.0000000892    0.0000003652
  -0.0000002108   -0.0000006692    0.0000000952
   0.0000000892   -0.0000001992    0.0000003552
  -0.0000000608    0.0000000408   -0.0000000048
  -0.0000000208    0.0000000408   -0.0000000248
   0.0000000292    0.0000001008   -0.0000001248
   0.0000001292    0.0000000808    0.0000000352
   0.0000000392    0.0000000608    0.0000000252
  -0.0000000308    0.0000000208   -0.0000001348
   0.0000000892    0.0000000808    0.0000003052
   0.0000000292   -0.0000000692   -0.0000000848
   0.0000000092   -0.0000000092    0.0000000452
   0.0000000792    0.0000000308    0.0000000152
  -0.0000000908    0.0000000108    0.0000000652
   0.0000000492   -0.0000000492    0.0000000152
  -0.0000000208   -0.0000000592    0.0000000552
  -0.0000000308   -0.0000000792   -0.0000001448
   0.0000000892    0.0000000108   -0.0000000048
  -0.0000000708    0.0000000408    0.0000001152
  -0.0000000108   -0.0000000192    0.0000001152
  -0.0000000908    0.0000000508    0.0000001152
  -0.0000001208    0.0000000108   -0.0000001448
   0.0000000092    0.0000000608    0.0000000452
  -0.0000000608    0.0000000008   -0.0000000048
  -0.0000000108   -0.0000000292    0.0000000052
   0.0000000992   -0.0000000092    0.0000001652
   0.0000000092    0.0000000208    0.0000000752
  -0.0000001208    0.0000001508    0.0000000452
  -0.0000000508    0.0000001308    0.0000002552
  -0.0000000408    0.0000001008   -0.0000000848
  -0.0000000408    0.0000000208   -0.0000000448
  -0.0000000008   -0.0000000792   -0.0000000048
   0.0000000992    0.0000000508    0.0000000652
  -0.0000000708    0.0000000508   -0.0000000548
   0.0000000392   -0.0000000292    0.0000000252
  -0.0000000108   -0.0000000192   -0.0000000348
  -0.0000001108    0.0000000608   -0.0000003448
  -0.0000000408   -0.0000000192    0.0000000152
  -0.0000000808   -0.0000001592   -0.0000000748
  -0.0000000708    0.0000000408   -0.0000001948
   0.0000000092    0.0000000008   -0.0000000748
  -0.0000000408   -0.0000001092   -0.0000003448
  -0.0000001108   -0.0000001092   -0.0000000948
  -0.0000001308    0.0000000708   -0.0000004648
  -0.0000000608    0.0000000308   -0.0000001548
  -0.0000000508    0.0000001108   -0.0000001548
  -0.0000000108    0.0000000308   -0.0000001248
  -0.0000000208   -0.0000001392   -0.0000001448
   0.0000000492   -0.0000000692   -0.0000000548
   0.0000000792   -0.0000000392   -0.0000002548
   0.0000000292   -0.0000000092   -0.0000001048

1    
 -0.0050000042454612   0.0086602515867248   0.0000000000000000
   0.0017505715   -0.0030371625   -0.0000007974
  -0.0000034685    0.0000043575   -0.0000073274
  -0.0000009385    0.0000021475   -0.0000007974
  -0.0000027985    0.0000049775    0.0000044226
  -0.0000011685    0.0000025075    0.0000008426
  -0.0000032385    0.0000251375   -0.0000006374
  -0.0000196485    0.0000152175   -0.0000020074
   0.0000001415    0.0000030375    0.0000012526
  -0.0000198185    0.0000150575    0.0000027226
  -0.0000020385    0.0000257475    0.0000029726
   0.0000001215    0.0000017475   -0.0000004374
  -0.0000012485    0.0000006175   -0.0000001974
  -0.0000025885    0.0000011475    0.0000009626
   0.0000001215    0.0000015875   -0.0000004374
  -0.0000013185    0.0000022375   -0.0000011074
  -0.0000018685    0.0000005875   -0.0000006574
   0.0001573815    0.0000847975    0.0000067226
   0.0000002815   -0.0000000225   -0.0000001374
   0.0000938115    0.0000445875   -0.0000050274
   0.0000970015    0.0001211175    0.0000001426
   0.0000002915    0.0000004675    0.0000009626
   0.0000077315    0.0000146975   -0.0000011974
   0.0000002715   -0.0000002325   -0.0000007274
   0.0000003515   -0.0000004325   -0.0000002174
  -0.0000087085    0.0000047975    0.0000038226
   0.0000005615   -0.0000004325    0.0000002826
   0.0000009215   -0.0000000925   -0.0000002474
   0.0000005715   -0.0000002925   -0.0000005474
   0.0000002815   -0.0000007425    0.0000001026
   0.0000077115   -0.0000040825   -0.0000027674
   0.0000002315   -0.0000008925   -0.0000002774
   0.0000004915   -0.0000006825    0.0000000826
  -0.0001554985   -0.0001008325    0.0000059626
  -0.0000169485    0.0000008775   -0.0000017674
  -0.0000874585   -0.0000610125   -0.0000071874
   0.0000003415   -0.0000007625   -0.0000002674
  -0.0001499385   -0.0000223725    0.0000017326
  -0.0000002685    0.0000089575    0.0000039526
  -0.0000000485   -0.0000002625    0.0000005626
  -0.0000003085   -0.0000001825    0.0000012226
   0.0000004715   -0.0000008325    0.0000002726
   0.0000002815   -0.0000083725   -0.0000016574
   0.0000006315   -0.0000008225   -0.0000003074
  -0.0000005785   -0.0000006625   -0.0000004674