     544
 i =      167, E =    -16875.9082032686
 Au         1.3477813081        5.9570300000       11.3595253517
 Au         1.3477813081       11.0631100000       11.3595253517
 Au         1.3477813081       16.1691900000       11.3595253517
 Au         1.3477813081       21.2752700000       11.3595253517
 Au         1.3477813081       26.3813500000       11.3595253517
 Au         1.3477813081       31.4874300000       11.3595253517
 Au         1.3477813081       36.5935100000       11.3595253517
 Au         2.8217813081        8.5101100000       11.3595253517
 Au         2.8217813081       13.6162100000       11.3595253517
 Au         2.8217813081       18.7222700000       11.3595253517
 Au         2.8217813081       23.8283700000       11.3595253517
 Au         2.8217813082       28.9344300000       11.3595253517
 Au         2.8217813082       34.0405300000       11.3595253517
 Au         4.2957813081       11.0631100000       11.3595253517
 Au         4.2957813081       16.1691900000       11.3595253517
 Au         4.2957813081       21.2752700000       11.3595253517
 Au         4.2957813081       26.3813500000       11.3595253517
 Au         4.2957813081       31.4874300000       11.3595253517
 Au         5.7697813081       13.6161900000       11.3595253517
 Au         5.7697813081       18.7222900000       11.3595253517
 Au         5.7697813081       23.8283500000       11.3595253517
 Au         5.7697813081       28.9344500000       11.3595253517
 Au         7.2437813081       16.1691900000       11.3595253517
 Au         7.2437813081       21.2752700000       11.3595253517
 Au         7.2437813081       26.3813500000       11.3595253517
 Au         8.7177813082       18.7222700000       11.3595253517
 Au         8.7177813082       23.8283700000       11.3595253517
 Au        -0.1262186919        3.4040300000       11.3595253517
 Au        -0.1262186919        8.5101300000       11.3595253517
 Au        -0.1262186919       13.6161900000       11.3595253517
 Au        -0.1262186919       18.7222900000       11.3595253517
 Au        -0.1262186919       23.8283500000       11.3595253517
 Au        -0.1262186919       28.9344500000       11.3595253517
 Au        -0.1262186919       34.0405100000       11.3595253517
 Au        -0.1262186919       39.1466100000       11.3595253517
 Au        -1.6002186918       21.2752700000       11.3595253517
 Au        -1.6002186918       26.3813500000       11.3595253517
 Au        -1.6002186918       31.4874300000       11.3595253517
 Au        -1.6002186918       36.5935100000       11.3595253517
 Au        -1.6002186919        5.9570300000       11.3595253517
 Au        -1.6002186919       11.0631100000       11.3595253517
 Au        -1.6002186919       16.1691900000       11.3595253517
 Au        -3.0742186918       18.7222700000       11.3595253517
 Au        -3.0742186918       23.8283700000       11.3595253517
 Au        -3.0742186918       28.9344300000       11.3595253517
 Au        -3.0742186918       34.0405300000       11.3595253517
 Au        -3.0742186919        8.5101100000       11.3595253517
 Au        -3.0742186919       13.6162100000       11.3595253517
 Au        -4.5482186919       11.0631100000       11.3595253517
 Au        -4.5482186919       16.1691900000       11.3595253517
 Au        -4.5482186919       21.2752700000       11.3595253517
 Au        -4.5482186919       26.3813500000       11.3595253517
 Au        -4.5482186919       31.4874300000       11.3595253517
 Au        -6.0222186919       13.6161900000       11.3595253517
 Au        -6.0222186919       18.7222900000       11.3595253517
 Au        -6.0222186919       23.8283500000       11.3595253517
 Au        -6.0222186919       28.9344500000       11.3595253517
 Au        -7.4962186919       16.1691900000       11.3595253517
 Au        -7.4962186919       21.2752700000       11.3595253517
 Au        -7.4962186919       26.3813500000       11.3595253517
 Au        -8.9702186919       18.7222700000       11.3595253517
 Au        -8.9702186919       23.8283700000       11.3595253517
 Au        10.1917813082       21.2752700000       11.3595253517
 Au       -10.4442186919       21.2752700000       11.3595253517
 Au         1.3477813081        4.2550300000       13.7665253517
 Au         1.3477813081        9.3611100000       13.7665253517
 Au         1.3477813081       14.4671900000       13.7665253517
 Au         1.3477813081       19.5732700000       13.7665253517
 Au         1.3477813081       24.6793500000       13.7665253517
 Au         1.3477813081       29.7854300000       13.7665253517
 Au         1.3477813081       34.8915100000       13.7665253517
 Au         2.8217813081        6.8081100000       13.7665253517
 Au         2.8217813081       11.9141100000       13.7665253517
 Au         2.8217813081       17.0202700000       13.7665253517
 Au         2.8217813081       22.1262700000       13.7665253517
 Au         2.8217813082       27.2324300000       13.7665253517
 Au         2.8217813082       32.3384300000       13.7665253517
 Au         4.2957813081        9.3611100000       13.7665253517
 Au         4.2957813081       14.4671900000       13.7665253517
 Au         4.2957813081       19.5732700000       13.7665253517
 Au         4.2957813081       24.6793500000       13.7665253517
 Au         4.2957813081       29.7854300000       13.7665253517
 Au         5.7697813081       11.9141900000       13.7665253517
 Au         5.7697813081       17.0201900000       13.7665253517
 Au         5.7697813081       22.1263500000       13.7665253517
 Au         5.7697813081       27.2323500000       13.7665253517
 Au         7.2437813081       14.4671900000       13.7665253517
 Au         7.2437813081       19.5732700000       13.7665253517
 Au         7.2437813081       24.6793500000       13.7665253517
 Au         8.7177813082       17.0202700000       13.7665253517
 Au         8.7177813082       22.1262700000       13.7665253517
 Au        -0.1262186919        1.7020300000       13.7665253517
 Au        -0.1262186919        6.8080300000       13.7665253517
 Au        -0.1262186919       11.9141900000       13.7665253517
 Au        -0.1262186919       17.0201900000       13.7665253517
 Au        -0.1262186919       22.1263500000       13.7665253517
 Au        -0.1262186919       27.2323500000       13.7665253517
 Au        -0.1262186919       32.3385100000       13.7665253517
 Au        -0.1262186919       37.4445100000       13.7665253517
 Au        -1.6002186918       19.5732700000       13.7665253517
 Au        -1.6002186918       24.6793500000       13.7665253517
 Au        -1.6002186918       29.7854300000       13.7665253517
 Au        -1.6002186918       34.8915100000       13.7665253517
 Au        -1.6002186919        4.2550300000       13.7665253517
 Au        -1.6002186919        9.3611100000       13.7665253517
 Au        -1.6002186919       14.4671900000       13.7665253517
 Au        -3.0742186918       17.0202700000       13.7665253517
 Au        -3.0742186918       22.1262700000       13.7665253517
 Au        -3.0742186918       27.2324300000       13.7665253517
 Au        -3.0742186918       32.3384300000       13.7665253517
 Au        -3.0742186919        6.8081100000       13.7665253517
 Au        -3.0742186919       11.9141100000       13.7665253517
 Au        -4.5482186919        9.3611100000       13.7665253517
 Au        -4.5482186919       14.4671900000       13.7665253517
 Au        -4.5482186919       19.5732700000       13.7665253517
 Au        -4.5482186919       24.6793500000       13.7665253517
 Au        -4.5482186919       29.7854300000       13.7665253517
 Au        -6.0222186919       11.9141900000       13.7665253517
 Au        -6.0222186919       17.0201900000       13.7665253517
 Au        -6.0222186919       22.1263500000       13.7665253517
 Au        -6.0222186919       27.2323500000       13.7665253517
 Au        -7.4962186919       14.4671900000       13.7665253517
 Au        -7.4962186919       19.5732700000       13.7665253517
 Au        -7.4962186919       24.6793500000       13.7665253517
 Au        -8.9702186919       17.0202700000       13.7665253517
 Au        -8.9702186919       22.1262700000       13.7665253517
 Au        10.1917813082       19.5732700000       13.7665253517
 Au       -10.4442186919       19.5732700000       13.7665253517
 Au         1.3477813081        5.9570300000       25.0480000000
 Au         1.3477813081       11.0631100000       25.0480000000
 Au         1.3477813081       16.1691900000       25.0480000000
 Au         1.3477813081       21.2752700000       25.0480000000
 Au         1.3477813081       26.3813500000       25.0480000000
 Au         1.3477813081       31.4874300000       25.0480000000
 Au         1.3477813081       36.5935100000       25.0480000000
 Au         2.8217813081        8.5101100000       25.0480000000
 Au         2.8217813081       13.6162100000       25.0480000000
 Au         2.8217813081       18.7222700000       25.0480000000
 Au         2.8217813081       23.8283700000       25.0480000000
 Au         2.8217813082       28.9344300000       25.0480000000
 Au         2.8217813082       34.0405300000       25.0480000000
 Au         4.2957813081       11.0631100000       25.0480000000
 Au         4.2957813081       16.1691900000       25.0480000000
 Au         4.2957813081       21.2752700000       25.0480000000
 Au         4.2957813081       26.3813500000       25.0480000000
 Au         4.2957813081       31.4874300000       25.0480000000
 Au         5.7697813081       13.6161900000       25.0480000000
 Au         5.7697813081       18.7222900000       25.0480000000
 Au         5.7697813081       23.8283500000       25.0480000000
 Au         5.7697813081       28.9344500000       25.0480000000
 Au         7.2437813081       16.1691900000       25.0480000000
 Au         7.2437813081       21.2752700000       25.0480000000
 Au         7.2437813081       26.3813500000       25.0480000000
 Au         8.7177813082       18.7222700000       25.0480000000
 Au         8.7177813082       23.8283700000       25.0480000000
 Au        -0.1262186919        3.4040300000       25.0480000000
 Au        -0.1262186919        8.5101300000       25.0480000000
 Au        -0.1262186919       13.6161900000       25.0480000000
 Au        -0.1262186919       18.7222900000       25.0480000000
 Au        -0.1262186919       23.8283500000       25.0480000000
 Au        -0.1262186919       28.9344500000       25.0480000000
 Au        -0.1262186919       34.0405100000       25.0480000000
 Au        -0.1262186919       39.1466100000       25.0480000000
 Au        -1.6002186918       21.2752700000       25.0480000000
 Au        -1.6002186918       26.3813500000       25.0480000000
 Au        -1.6002186918       31.4874300000       25.0480000000
 Au        -1.6002186918       36.5935100000       25.0480000000
 Au        -1.6002186919        5.9570300000       25.0480000000
 Au        -1.6002186919       11.0631100000       25.0480000000
 Au        -1.6002186919       16.1691900000       25.0480000000
 Au        -3.0742186918       18.7222700000       25.0480000000
 Au        -3.0742186918       23.8283700000       25.0480000000
 Au        -3.0742186918       28.9344300000       25.0480000000
 Au        -3.0742186918       34.0405300000       25.0480000000
 Au        -3.0742186919        8.5101100000       25.0480000000
 Au        -3.0742186919       13.6162100000       25.0480000000
 Au        -4.5482186919       11.0631100000       25.0480000000
 Au        -4.5482186919       16.1691900000       25.0480000000
 Au        -4.5482186919       21.2752700000       25.0480000000
 Au        -4.5482186919       26.3813500000       25.0480000000
 Au        -4.5482186919       31.4874300000       25.0480000000
 Au        -6.0222186919       13.6161900000       25.0480000000
 Au        -6.0222186919       18.7222900000       25.0480000000
 Au        -6.0222186919       23.8283500000       25.0480000000
 Au        -6.0222186919       28.9344500000       25.0480000000
 Au        -7.4962186919       16.1691900000       25.0480000000
 Au        -7.4962186919       21.2752700000       25.0480000000
 Au        -7.4962186919       26.3813500000       25.0480000000
 Au        -8.9702186919       18.7222700000       25.0480000000
 Au        -8.9702186919       23.8283700000       25.0480000000
 Au        10.1917813082       21.2752700000       25.0480000000
 Au       -10.4442186919       21.2752700000       25.0480000000
 Au         1.3477813081        4.2550300000       27.4550000000
 Au         1.3477813081        9.3611100000       27.4550000000
 Au         1.3477813081       14.4671900000       27.4550000000
 Au         1.3477813081       19.5732700000       27.4550000000
 Au         1.3477813081       24.6793500000       27.4550000000
 Au         1.3477813081       29.7854300000       27.4550000000
 Au         1.3477813081       34.8915100000       27.4550000000
 Au         2.8217813081        6.8081100000       27.4550000000
 Au         2.8217813081       11.9141100000       27.4550000000
 Au         2.8217813081       17.0202700000       27.4550000000
 Au         2.8217813081       22.1262700000       27.4550000000
 Au         2.8217813082       27.2324300000       27.4550000000
 Au         2.8217813082       32.3384300000       27.4550000000
 Au         4.2957813081        9.3611100000       27.4550000000
 Au         4.2957813081       14.4671900000       27.4550000000
 Au         4.2957813081       19.5732700000       27.4550000000
 Au         4.2957813081       24.6793500000       27.4550000000
 Au         4.2957813081       29.7854300000       27.4550000000
 Au         5.7697813081       11.9141900000       27.4550000000
 Au         5.7697813081       17.0201900000       27.4550000000
 Au         5.7697813081       22.1263500000       27.4550000000
 Au         5.7697813081       27.2323500000       27.4550000000
 Au         7.2437813081       14.4671900000       27.4550000000
 Au         7.2437813081       19.5732700000       27.4550000000
 Au         7.2437813081       24.6793500000       27.4550000000
 Au         8.7177813082       17.0202700000       27.4550000000
 Au         8.7177813082       22.1262700000       27.4550000000
 Au        -0.1262186919        1.7020300000       27.4550000000
 Au        -0.1262186919        6.8080300000       27.4550000000
 Au        -0.1262186919       11.9141900000       27.4550000000
 Au        -0.1262186919       17.0201900000       27.4550000000
 Au        -0.1262186919       22.1263500000       27.4550000000
 Au        -0.1262186919       27.2323500000       27.4550000000
 Au        -0.1262186919       32.3385100000       27.4550000000
 Au        -0.1262186919       37.4445100000       27.4550000000
 Au        -1.6002186918       19.5732700000       27.4550000000
 Au        -1.6002186918       24.6793500000       27.4550000000
 Au        -1.6002186918       29.7854300000       27.4550000000
 Au        -1.6002186918       34.8915100000       27.4550000000
 Au        -1.6002186919        4.2550300000       27.4550000000
 Au        -1.6002186919        9.3611100000       27.4550000000
 Au        -1.6002186919       14.4671900000       27.4550000000
 Au        -3.0742186918       17.0202700000       27.4550000000
 Au        -3.0742186918       22.1262700000       27.4550000000
 Au        -3.0742186918       27.2324300000       27.4550000000
 Au        -3.0742186918       32.3384300000       27.4550000000
 Au        -3.0742186919        6.8081100000       27.4550000000
 Au        -3.0742186919       11.9141100000       27.4550000000
 Au        -4.5482186919        9.3611100000       27.4550000000
 Au        -4.5482186919       14.4671900000       27.4550000000
 Au        -4.5482186919       19.5732700000       27.4550000000
 Au        -4.5482186919       24.6793500000       27.4550000000
 Au        -4.5482186919       29.7854300000       27.4550000000
 Au        -6.0222186919       11.9141900000       27.4550000000
 Au        -6.0222186919       17.0201900000       27.4550000000
 Au        -6.0222186919       22.1263500000       27.4550000000
 Au        -6.0222186919       27.2323500000       27.4550000000
 Au        -7.4962186919       14.4671900000       27.4550000000
 Au        -7.4962186919       19.5732700000       27.4550000000
 Au        -7.4962186919       24.6793500000       27.4550000000
 Au        -8.9702186919       17.0202700000       27.4550000000
 Au        -8.9702186919       22.1262700000       27.4550000000
 Au        10.1917813082       19.5732700000       27.4550000000
 Au       -10.4442186919       19.5732700000       27.4550000000
 Se        -7.9867877640       13.5982132341        5.0608069185
 Se         0.8572122123       28.9164533157        5.0608066959
 Se        -2.0907878207       23.8103732754        5.0608065483
 Se         3.8052122527       13.5982132641        5.0608067109
 Se        -5.0387877891       18.7042932421        5.0608067350
 Se         0.8572122219        8.4921333302        5.0608066486
 Se        -2.0907877347        3.3860532652        5.0608067297
 Se         6.7532122141       18.7042932891        5.0608067329
 Se         0.8572121271       18.7042932030        5.0608066264
 Se        -2.0907878189       13.5982132892        5.0608067813
 Se        -5.0387877450       28.9164533089        5.0608066918
 Se        -5.0387877744        8.4921332913        5.0608068146
 Se       -10.9347877161       18.7042931767        5.0608068444
 Se         3.8052122498       23.8103732521        5.0608066299
 Se        -7.9867877091       23.8103732061        5.0608066447
 Se        -2.0907877061       34.0225332412        5.0608068542
 Se         0.8586083847       11.8935863230        5.0608878234
 Se         0.8586084550       32.3179062556        5.0608879432
 Se        -5.0373915759       22.1057462582        5.0608877532
 Se        -5.0373915609       11.8935861577        5.0608879960
 Se        -2.0893915854       27.2118262577        5.0608877097
 Se         0.8586084086       22.1057461721        5.0608876577
 Se        -7.9853915138       16.9996661984        5.0608879847
 Se        -2.0893916273       16.9996661826        5.0608877789
 Se         3.8066084322       16.9996662504        5.0608878107
 Se        -2.0893915735        6.7875062581        5.0608878097
 Se         6.7546084451       22.1057462596        5.0608877834
 Se         6.7546085054       11.8935862324        5.0608878975
 Se         3.8066084786       27.2118262696        5.0608877449
 Se         0.8586085030        1.6814261398        5.0608877909
 Se         3.8066085007        6.7875062188        5.0608877103
 Se         9.7026085313       16.9996661704        5.0608878895
 Se         3.8082978675       30.6184815219        5.0608409530
 Se        -2.0877022031       20.4063214773        5.0608407171
 Se         3.8082978644       10.1941615252        5.0608408036
 Se        -5.0357021869       15.3002414097        5.0608409104
 Se         9.7042979188       20.4063214249        5.0608408425
 Se        -2.0877021887       10.1941615105        5.0608409378
 Se        -2.0877021050       30.6184814861        5.0608408657
 Se         0.8602978766       25.5124014496        5.0608406576
 Se        -7.9837020892       20.4063213977        5.0608408974
 Se         0.8602979066        5.0880814564        5.0608407163
 Se         0.8602979700       35.7245614294        5.0608410183
 Se         0.8602978649       15.3002414866        5.0608408330
 Se         6.7562979259       15.3002414577        5.0608408327
 Se        -5.0357021061       25.5124015162        5.0608407367
 Se         3.8082978304       20.4063214411        5.0608408078
 Se         6.7562978995       25.5124015151        5.0608408678
 Se        -7.9886239416       13.5986288330        8.3601128660
 Se         0.8553760006       28.9168687141        8.3601126510
 Se         0.8553760902        8.4925488714        8.3601125728
 Se        -5.0406238976       18.7047089772        8.3601126836
 Se         3.8033760684       13.5986289080        8.3601126395
 Se        -2.0926239665       23.8107888935        8.3601125037
 Se        -2.0926239251        3.3864688808        8.3601126435
 Se         6.7513760029       18.7047089175        8.3601126478
 Se        -2.0926239850       13.5986289220        8.3601127049
 Se        -5.0406240574        8.4925487970        8.3601127884
 Se        -5.0406240448       28.9168688458        8.3601126279
 Se         0.8553758721       18.7047088358        8.3601125957
 Se       -10.9366239509       18.7047088500        8.3601127735
 Se        -2.0926239606       34.0229488236        8.3601128042
 Se        -7.9886239505       23.8107888802        8.3601125922
 Se         3.8033759638       23.8107888181        8.3601125913
 Se         3.8092167334       30.6199618824        8.3600348296
 Se        -2.0867832397       20.4078020463        8.3600346310
 Se         3.8092167598       10.1956419514        8.3600346799
 Se        -2.0867831622       10.1956419487        8.3600348021
 Se        -5.0347832004       15.3017219598        8.3600348232
 Se         9.7052167664       20.4078019761        8.3600347337
 Se         0.8612167530       25.5138818937        8.3600345585
 Se        -2.0867832088       30.6199618571        8.3600347782
 Se         0.8612167923       15.3017219964        8.3600347441
 Se         6.7572167866       15.3017220025        8.3600347195
 Se        -7.9827831584       20.4078020076        8.3600348009
 Se         3.8092166565       20.4078019370        8.3600346977
 Se         0.8612168684        5.0895619794        8.3600346302
 Se         0.8612168114       35.7260419420        8.3600349030
 Se        -5.0347832172       25.5138819794        8.3600346568
 Se         6.7572167529       25.5138819362        8.3600347373
 Se         0.8598555033       32.3161295493        8.3602992244
 Se         0.8598555542       11.8918096709        8.3602990923
 Se        -5.0361444216       22.1039696818        8.3602990350
 Se         6.7558554858       22.1039696395        8.3602990448
 Se        -7.9841443780       16.9978896479        8.3602992382
 Se        -5.0361444341       11.8918095940        8.3602992369
 Se        -2.0881444013        6.7857296270        8.3602990664
 Se        -2.0881444667       27.2100495545        8.3602989972
 Se         3.8078555302       16.9978896317        8.3602990610
 Se         6.7558555414       11.8918095887        8.3602991112
 Se         0.8598555947        1.6796496450        8.3602990276
 Se         3.8078554583       27.2100495940        8.3602990237
 Se         0.8598554759       22.1039696162        8.3602989292
 Se        -2.0881444901       16.9978896456        8.3602990674
 Se         3.8078555607        6.7857296046        8.3602989681
 Se         9.7038555239       16.9978896194        8.3602991224
 Se        -2.0881799524       23.8522580078       16.7901260830
 Se        -2.0881799423        3.4279379959       16.7901254664
 Se         3.8078200715       13.6400982036       16.7901261607
 Se         0.8598201936        8.5340181564       16.7901255705
 Se        -5.0361799518       28.9583380717       16.7901259602
 Se        -7.9841800613       13.6400981525       16.7901254192
 Se       -10.9321800575       18.7461780383       16.7901256286
 Se        -7.9841798071       23.8522581046       16.7901257051
 Se         0.8598198078       28.9583379900       16.7901255322
 Se        -5.0361798748       18.7461782011       16.7901259198
 Se         0.8598199961       18.7461781175       16.7901262052
 Se         6.7558198714       18.7461779898       16.7901260184
 Se        -5.0361799604        8.5340180467       16.7901251400
 Se         3.8078199036       23.8522578839       16.7901256840
 Se        -2.0881801183       34.0644180855       16.7901258580
 Se        -2.0881798300       13.6400982686       16.7901255660
 Se        -2.0920371226       27.2518991961       16.7903342529
 Se        -5.0400369748       22.1458193834       16.7903343303
 Se         0.8559629617        1.7214992166       16.7903339339
 Se        -2.0920369668        6.8275793194       16.7903336338
 Se         6.7519627594       22.1458191403       16.7903340321
 Se         0.8559628056       22.1458191935       16.7903344677
 Se        -7.9880370559       17.0397393899       16.7903339365
 Se         0.8559630902       11.9336594187       16.7903340986
 Se         3.8039630428        6.8275793898       16.7903341044
 Se         0.8559627305       32.3579792706       16.7903338782
 Se         6.7519628680       11.9336593903       16.7903344681
 Se         9.6999627337       17.0397392951       16.7903341537
 Se         3.8039629040       17.0397393103       16.7903346209
 Se         3.8039627780       27.2518991830       16.7903336524
 Se        -2.0920370111       17.0397395196       16.7903343370
 Se        -5.0400371376       11.9336594194       16.7903335901
 Se         9.7051548822       20.4430650879       16.7904248891
 Se         0.8611551745        5.1248250907       16.7904247026
 Se        -5.0348448445       25.5491451087       16.7904251104
 Se         3.8091551341       10.2309052947       16.7904251095
 Se         0.8611549209       25.5491449703       16.7904249395
 Se         0.8611549659       35.7613051192       16.7904248200
 Se        -2.0868449650       20.4430652541       16.7904253585
 Se        -7.9828448631       20.4430651334       16.7904249387
 Se         6.7571550120       25.5491449479       16.7904244872
 Se         3.8091549012       30.6552250920       16.7904244328
 Se         6.7571548994       15.3369851310       16.7904253256
 Se         0.8611551286       15.3369853121       16.7904252168
 Se        -5.0348449167       15.3369853159       16.7904247667
 Se        -2.0868451688       30.6552251160       16.7904249986
 Se        -2.0868448720       10.2309051866       16.7904244964
 Se         3.8091548948       20.4430650104       16.7904252524
 Se         9.7043443868       20.4443582184       20.0906828461
 Se         0.8603442581        5.1261180694       20.0906826482
 Se        -5.0356557433       25.5504381535       20.0906831266
 Se         3.8083442041       10.2321980731       20.0906831018
 Se        -2.0876557906       20.4443581849       20.0906833501
 Se         0.8603444981       25.5504382595       20.0906829388
 Se         0.8603441723       15.3382780633       20.0906832185
 Se         6.7563443801       25.5504382074       20.0906824348
 Se         0.8603444485       35.7625980328       20.0906827150
 Se         6.7563444247       15.3382781462       20.0906833118
 Se         3.8083444144       30.6565180111       20.0906823920
 Se        -5.0356557301       15.3382779308       20.0906827034
 Se        -2.0876558597       10.2321980469       20.0906824479
 Se        -7.9836557450       20.4443580689       20.0906828766
 Se         3.8083443789       20.4443582874       20.0906832710
 Se        -2.0876555894       30.6565181204       20.0906830138
 Se        -2.0893123861        3.4263397213       20.0906461025
 Se        -2.0893123773       23.8506597847       20.0906467948
 Se         0.8586874533        8.5324195676       20.0906462439
 Se        -7.9853123690       13.6384994839       20.0906460933
 Se        -7.9853124623       23.8506596789       20.0906463661
 Se       -10.9333123925       18.7445796087       20.0906463045
 Se         3.8066874730       13.6384996231       20.0906468405
 Se         6.7546877102       18.7445797548       20.0906467157
 Se        -5.0373124417       28.9567395889       20.0906466090
 Se        -5.0373125192       18.7445795419       20.0906465914
 Se        -2.0893121811       34.0628196201       20.0906465505
 Se         0.8586877065       28.9567396494       20.0906462077
 Se        -2.0893125373       13.6384994968       20.0906462074
 Se         0.8586875284       18.7445797196       20.0906468827
 Se         3.8066877365       23.8506598633       20.0906463820
 Se        -5.0373124036        8.5324196050       20.0906457759
 Se        -5.0384235796       22.1462337582       20.0907249655
 Se         0.8575765760        1.7219137051       20.0907245029
 Se         0.8575763500       11.9340736129       20.0907246825
 Se        -2.0904235099        6.8279937170       20.0907242310
 Se        -2.0904233487       27.2523137860       20.0907248751
 Se        -7.9864234537       17.0401535848       20.0907245670
 Se         6.7535766300       22.1462338644       20.0907246700
 Se         3.8055764465        6.8279936907       20.0907246918
 Se         9.7015766947       17.0401537201       20.0907247764
 Se         0.8575766858       32.3583935847       20.0907244958
 Se         6.7535766213       11.9340737002       20.0907250485
 Se        -2.0904235488       17.0401536510       20.0907249165
 Se         3.8055765330       17.0401538147       20.0907252375
 Se         0.8575766512       22.1462338778       20.0907250802
 Se         3.8055766845       27.2523137729       20.0907242688
 Se        -5.0384234951       11.9340736029       20.0907242021
  W         1.8388353654       34.0202063451        6.7135192941
  W         1.8388353592       13.5958864185        6.7135191002
  W        -1.1091646481       28.9141263266        6.7135190661
  W        -1.1091646234        8.4898063893        6.7135190795
  W        -4.0571646547       23.8080464062        6.7135189884
  W        -7.0051645938       18.7019663859        6.7135191922
  W         4.7868353204       28.9141263559        6.7135191278
  W         7.7348353455       23.8080463926        6.7135190809
  W        -4.0571646820       13.5958863642        6.7135191923
  W        -1.1091647372       18.7019663951        6.7135190046
  W         4.7868353396        8.4898063911        6.7135190048
  W         4.7868353187       18.7019663846        6.7135190880