phonopy:
  version: 2.16.3
  calculator: cp2k
  frequency_unit_conversion_factor: 112.105157
  symmetry_tolerance: 1.00000e-05
  configuration:
    anime: "0 0 0"
    dim: "1 1 1"
    primitive_axis: "AUTO"

physical_unit:
  atomic_mass: "AMU"
  length: "angstrom"
  force_constants: "hartree/angstrom.au"

space_group:
  type: "P1"
  number: 1
  Hall_symbol: "P 1"

primitive_matrix:
- [  0.000000000000000, -0.250000000000000, -0.000000000000000 ]
- [  0.250000000000000, -0.000000000000000,  0.000000000000000 ]
- [  0.000000000000000,  0.000000000000000,  1.000000000000000 ]

supercell_matrix:
- [   1,   0,   0 ]
- [   0,   1,   0 ]
- [   0,   0,   1 ]

primitive_cell:
  lattice:
  - [    -2.947999999999996,     5.106080000000000,     0.000000000000000 ] # a
  - [    -2.947999999999998,    -5.106079999999999,     0.000000000000000 ] # b
  - [    -0.000000000000004,    -0.000000000000000,    27.499999999999993 ] # c
  points:
  - symbol: W  # 1
    coordinates: [  0.689606033432191,  0.685476872843247,  0.670453473287273 ]
    mass: 183.840000
  - symbol: W  # 2
    coordinates: [  0.356887488644264,  0.019210374008379,  0.670450777650909 ]
    mass: 183.840000
  - symbol: W  # 3
    coordinates: [  0.023144193229071,  0.352766266404579,  0.670448185127273 ]
    mass: 183.840000
  - symbol: W  # 4
    coordinates: [  0.352983114097337,  0.022948459783263,  0.244130850472727 ]
    mass: 183.840000
  - symbol: W  # 5
    coordinates: [  0.019464410196513,  0.356778681594532,  0.244127974330909 ]
    mass: 183.840000
  - symbol: W  # 6
    coordinates: [  0.685638515266481,  0.689443980221984,  0.244125375385455 ]
    mass: 183.840000
  - symbol: Se # 7
    coordinates: [  0.023163500158752,  0.685935369244235,  0.730571826818182 ]
    mass: 78.960000
  - symbol: Se # 8
    coordinates: [  0.356042207453137,  0.352117830063828,  0.730570303640000 ]
    mass: 78.960000
  - symbol: Se # 9
    coordinates: [  0.689876674119868,  0.018845331171855,  0.730568977552727 ]
    mass: 78.960000
  - symbol: Se # 10
    coordinates: [  0.355778079164377,  0.352106915747428,  0.610560922127273 ]
    mass: 78.960000
  - symbol: Se # 11
    coordinates: [  0.023396592849076,  0.686249640529487,  0.610557622578182 ]
    mass: 78.960000
  - symbol: Se # 12
    coordinates: [  0.689841119303484,  0.018496738193124,  0.610550043825455 ]
    mass: 78.960000
  - symbol: Se # 13
    coordinates: [  0.018638339930757,  0.689687432796517,  0.304010881389091 ]
    mass: 78.960000
  - symbol: Se # 14
    coordinates: [  0.686534065033673,  0.023311234016531,  0.304004104218182 ]
    mass: 78.960000
  - symbol: Se # 15
    coordinates: [  0.352314530625929,  0.355549508926308,  0.304001269200000 ]
    mass: 78.960000
  - symbol: Se # 16
    coordinates: [  0.019023830512921,  0.689725002899565,  0.184032290763636 ]
    mass: 78.960000
  - symbol: Se # 17
    coordinates: [  0.352325396651057,  0.355850325872688,  0.184030582483636 ]
    mass: 78.960000
  - symbol: Se # 18
    coordinates: [  0.686181940880273,  0.023040502810364,  0.184029342490909 ]
    mass: 78.960000
  reciprocal_lattice: # without 2pi
  - [    -0.169606512890095,     0.097922476733620,    -0.000000000000000 ] # a*
  - [    -0.169606512890095,    -0.097922476733620,    -0.000000000000000 ] # b*
  - [    -0.000000000000000,     0.000000000000000,     0.036363636363636 ] # c*

unit_cell:
  lattice:
  - [    11.792000000000000,    20.424320000000002,     0.000000000000000 ] # a
  - [   -11.792000000000000,    20.424320000000002,     0.000000000000000 ] # b
  - [     0.000000000000000,     0.000000000000000,    27.500000000000000 ] # c
  points:
  - symbol: W  # 1
    coordinates: [  0.578630781789188,  0.172401508358048,  0.670453473287273 ]
    mass: 183.840000
    reduced_to: 1
  - symbol: W  # 2
    coordinates: [  0.578630782484690,  0.422401507094595,  0.670453469661818 ]
    mass: 183.840000
    reduced_to: 1
  - symbol: W  # 3
    coordinates: [  0.328630781250932,  0.672401508235328,  0.670453465643636 ]
    mass: 183.840000
    reduced_to: 1
  - symbol: W  # 4
    coordinates: [  0.578630781305874,  0.922401506373716,  0.670453462981818 ]
    mass: 183.840000
    reduced_to: 1
  - symbol: W  # 5
    coordinates: [  0.578630782742513,  0.672401503722838,  0.670453461112727 ]
    mass: 183.840000
    reduced_to: 1
  - symbol: W  # 6
    coordinates: [  0.328630783589924,  0.422401507360277,  0.670453457643636 ]
    mass: 183.840000
    reduced_to: 1
  - symbol: W  # 7
    coordinates: [  0.828630780337817,  0.172401507797112,  0.670453455960000 ]
    mass: 183.840000
    reduced_to: 1
  - symbol: W  # 8
    coordinates: [  0.328630784814332,  0.922401504760058,  0.670453454781818 ]
    mass: 183.840000
    reduced_to: 1
  - symbol: W  # 9
    coordinates: [  0.328630782450272,  0.172401504906174,  0.670453454109091 ]
    mass: 183.840000
    reduced_to: 1
  - symbol: W  # 10
    coordinates: [  0.828630782146150,  0.922401504847982,  0.670453453338182 ]
    mass: 183.840000
    reduced_to: 1
  - symbol: W  # 11
    coordinates: [  0.078630781178463,  0.922401503744609,  0.670453448967273 ]
    mass: 183.840000
    reduced_to: 1
  - symbol: W  # 12
    coordinates: [  0.078630779892699,  0.672401505426959,  0.670453445163636 ]
    mass: 183.840000
    reduced_to: 1
  - symbol: W  # 13
    coordinates: [  0.828630779078034,  0.672401505188957,  0.670453441210909 ]
    mass: 183.840000
    reduced_to: 1
  - symbol: W  # 14
    coordinates: [  0.078630782978933,  0.172401504230629,  0.670453440458182 ]
    mass: 183.840000
    reduced_to: 1
  - symbol: W  # 15
    coordinates: [  0.828630781950434,  0.422401504558982,  0.670453439840000 ]
    mass: 183.840000
    reduced_to: 1
  - symbol: W  # 16
    coordinates: [  0.078630780611576,  0.422401506926026,  0.670453432196364 ]
    mass: 183.840000
    reduced_to: 1
  - symbol: W  # 17
    coordinates: [  0.495197406497905,  0.339221872161066,  0.670450777650909 ]
    mass: 183.840000
    reduced_to: 17
  - symbol: W  # 18
    coordinates: [  0.495197406937767,  0.589221870913344,  0.670450776716364 ]
    mass: 183.840000
    reduced_to: 17
  - symbol: W  # 19
    coordinates: [  0.495197406712301,  0.089221871349343,  0.670450773723636 ]
    mass: 183.840000
    reduced_to: 17
  - symbol: W  # 20
    coordinates: [  0.745197404896920,  0.089221870687286,  0.670450769920000 ]
    mass: 183.840000
    reduced_to: 17
  - symbol: W  # 21
    coordinates: [  0.495197406568864,  0.839221867737453,  0.670450767218182 ]
    mass: 183.840000
    reduced_to: 17
  - symbol: W  # 22
    coordinates: [  0.745197404437927,  0.339221870940641,  0.670450763392727 ]
    mass: 183.840000
    reduced_to: 17
  - symbol: W  # 23
    coordinates: [  0.245197406599712,  0.589221870414162,  0.670450763170909 ]
    mass: 183.840000
    reduced_to: 17
  - symbol: W  # 24
    coordinates: [  0.245197407480083,  0.839221869225334,  0.670450762167273 ]
    mass: 183.840000
    reduced_to: 17
  - symbol: W  # 25
    coordinates: [  0.745197404012500,  0.839221869319488,  0.670450759418182 ]
    mass: 183.840000
    reduced_to: 17
  - symbol: W  # 26
    coordinates: [ -0.004802593595705,  0.839221868293712,  0.670450754210909 ]
    mass: 183.840000
    reduced_to: 17
  - symbol: W  # 27
    coordinates: [  0.245197405336289,  0.089221868989613,  0.670450754127273 ]
    mass: 183.840000
    reduced_to: 17
  - symbol: W  # 28
    coordinates: [ -0.004802593331361,  0.089221868430850,  0.670450753029091 ]
    mass: 183.840000
    reduced_to: 17
  - symbol: W  # 29
    coordinates: [  0.745197405046483,  0.589221869700486,  0.670450751047273 ]
    mass: 183.840000
    reduced_to: 17
  - symbol: W  # 30
    coordinates: [  0.245197405725509,  0.339221870201425,  0.670450750141818 ]
    mass: 183.840000
    reduced_to: 17
  - symbol: W  # 31
    coordinates: [ -0.004802596944769,  0.589221870355095,  0.670450742381818 ]
    mass: 183.840000
    reduced_to: 17
  - symbol: W  # 32
    coordinates: [ -0.004802594104726,  0.339221867818612,  0.670450738494545 ]
    mass: 183.840000
    reduced_to: 17
  - symbol: W  # 33
    coordinates: [  0.661808433398855,  0.255786048307268,  0.670448185127273 ]
    mass: 183.840000
    reduced_to: 33
  - symbol: W  # 34
    coordinates: [  0.411808434251321,  0.505786049736396,  0.670448184509091 ]
    mass: 183.840000
    reduced_to: 33
  - symbol: W  # 35
    coordinates: [  0.661808435478430,  0.005786045179922,  0.670448181752727 ]
    mass: 183.840000
    reduced_to: 33
  - symbol: W  # 36
    coordinates: [  0.411808434663838,  0.755786046018995,  0.670448180407273 ]
    mass: 183.840000
    reduced_to: 33
  - symbol: W  # 37
    coordinates: [  0.411808433553036,  0.255786048334244,  0.670448178123636 ]
    mass: 183.840000
    reduced_to: 33
  - symbol: W  # 38
    coordinates: [  0.411808434037585,  0.005786047487381,  0.670448174440000 ]
    mass: 183.840000
    reduced_to: 33
  - symbol: W  # 39
    coordinates: [  0.661808434307626,  0.505786044950435,  0.670448173578182 ]
    mass: 183.840000
    reduced_to: 33
  - symbol: W  # 40
    coordinates: [  0.661808431775512,  0.755786047693083,  0.670448169389091 ]
    mass: 183.840000
    reduced_to: 33
  - symbol: W  # 41
    coordinates: [  0.161808432636179,  0.755786045280344,  0.670448169374545 ]
    mass: 183.840000
    reduced_to: 33
  - symbol: W  # 42
    coordinates: [  0.911808431701671,  0.005786047424195,  0.670448167240000 ]
    mass: 183.840000
    reduced_to: 33
  - symbol: W  # 43
    coordinates: [  0.161808434963149,  0.005786042782009,  0.670448162570909 ]
    mass: 183.840000
    reduced_to: 33
  - symbol: W  # 44
    coordinates: [  0.911808430412790,  0.755786043777783,  0.670448160200000 ]
    mass: 183.840000
    reduced_to: 33
  - symbol: W  # 45
    coordinates: [  0.911808432583209,  0.255786044099491,  0.670448158316364 ]
    mass: 183.840000
    reduced_to: 33
  - symbol: W  # 46
    coordinates: [  0.161808432054809,  0.505786046361118,  0.670448156640000 ]
    mass: 183.840000
    reduced_to: 33
  - symbol: W  # 47
    coordinates: [  0.161808433372119,  0.255786045719473,  0.670448154650909 ]
    mass: 183.840000
    reduced_to: 33
  - symbol: W  # 48
    coordinates: [  0.911808431520193,  0.505786045054792,  0.670448147941818 ]
    mass: 183.840000
    reduced_to: 33
  - symbol: W  # 49
    coordinates: [ -0.005737114945816,  0.588245778524334,  0.244130850472727 ]
    mass: 183.840000
    reduced_to: 49
  - symbol: W  # 50
    coordinates: [ -0.005737112653645,  0.838245775889435,  0.244130850036364 ]
    mass: 183.840000
    reduced_to: 49
  - symbol: W  # 51
    coordinates: [  0.744262884064010,  0.838245778373711,  0.244130848043636 ]
    mass: 183.840000
    reduced_to: 49
  - symbol: W  # 52
    coordinates: [ -0.005737114217146,  0.338245780033193,  0.244130846047273 ]
    mass: 183.840000
    reduced_to: 49
  - symbol: W  # 53
    coordinates: [  0.244262886167260,  0.338245781019702,  0.244130845916364 ]
    mass: 183.840000
    reduced_to: 49
  - symbol: W  # 54
    coordinates: [  0.244262883829751,  0.588245780174730,  0.244130844465455 ]
    mass: 183.840000
    reduced_to: 49
  - symbol: W  # 55
    coordinates: [  0.494262885071008,  0.088245779898009,  0.244130843978182 ]
    mass: 183.840000
    reduced_to: 49
  - symbol: W  # 56
    coordinates: [  0.244262886206797,  0.838245778532102,  0.244130843440000 ]
    mass: 183.840000
    reduced_to: 49
  - symbol: W  # 57
    coordinates: [  0.744262886457614,  0.088245779588550,  0.244130843349091 ]
    mass: 183.840000
    reduced_to: 49
  - symbol: W  # 58
    coordinates: [  0.494262884285232,  0.338245781011826,  0.244130843029091 ]
    mass: 183.840000
    reduced_to: 49
  - symbol: W  # 59
    coordinates: [ -0.005737113375738,  0.088245776719242,  0.244130842992727 ]
    mass: 183.840000
    reduced_to: 49
  - symbol: W  # 60
    coordinates: [  0.744262882770846,  0.338245781218946,  0.244130842076364 ]
    mass: 183.840000
    reduced_to: 49
  - symbol: W  # 61
    coordinates: [  0.494262885616163,  0.838245779705376,  0.244130841654545 ]
    mass: 183.840000
    reduced_to: 49
  - symbol: W  # 62
    coordinates: [  0.744262883445250,  0.588245778933717,  0.244130838938182 ]
    mass: 183.840000
    reduced_to: 49
  - symbol: W  # 63
    coordinates: [  0.244262887329750,  0.088245777746982,  0.244130838872727 ]
    mass: 183.840000
    reduced_to: 49
  - symbol: W  # 64
    coordinates: [  0.494262883826029,  0.588245781578743,  0.244130837661818 ]
    mass: 183.840000
    reduced_to: 49
  - symbol: W  # 65
    coordinates: [  0.910805329601367,  0.754866102549128,  0.244127974330909 ]
    mass: 183.840000
    reduced_to: 65
  - symbol: W  # 66
    coordinates: [  0.160805328059110,  0.504866105026545,  0.244127970629091 ]
    mass: 183.840000
    reduced_to: 65
  - symbol: W  # 67
    coordinates: [  0.160805332330163,  0.754866101817951,  0.244127970625455 ]
    mass: 183.840000
    reduced_to: 65
  - symbol: W  # 68
    coordinates: [  0.660805331768107,  0.004866102629709,  0.244127969680000 ]
    mass: 183.840000
    reduced_to: 65
  - symbol: W  # 69
    coordinates: [  0.910805330484200,  0.004866101837660,  0.244127969443636 ]
    mass: 183.840000
    reduced_to: 65
  - symbol: W  # 70
    coordinates: [  0.910805327957684,  0.504866104721592,  0.244127968283636 ]
    mass: 183.840000
    reduced_to: 65
  - symbol: W  # 71
    coordinates: [  0.410805331135354,  0.254866104608896,  0.244127967280000 ]
    mass: 183.840000
    reduced_to: 65
  - symbol: W  # 72
    coordinates: [  0.660805328588195,  0.254866105496269,  0.244127966836364 ]
    mass: 183.840000
    reduced_to: 65
  - symbol: W  # 73
    coordinates: [  0.910805329920404,  0.254866104555750,  0.244127966578182 ]
    mass: 183.840000
    reduced_to: 65
  - symbol: W  # 74
    coordinates: [  0.160805331158309,  0.254866103156273,  0.244127966527273 ]
    mass: 183.840000
    reduced_to: 65
  - symbol: W  # 75
    coordinates: [  0.660805328576053,  0.754866102668659,  0.244127966040000 ]
    mass: 183.840000
    reduced_to: 65
  - symbol: W  # 76
    coordinates: [  0.410805329633513,  0.004866104769199,  0.244127963810909 ]
    mass: 183.840000
    reduced_to: 65
  - symbol: W  # 77
    coordinates: [  0.410805326474991,  0.504866108123566,  0.244127963803636 ]
    mass: 183.840000
    reduced_to: 65
  - symbol: W  # 78
    coordinates: [  0.160805330895380,  0.004866101994430,  0.244127963501818 ]
    mass: 183.840000
    reduced_to: 65
  - symbol: W  # 79
    coordinates: [  0.410805330244860,  0.754866104897167,  0.244127963214545 ]
    mass: 183.840000
    reduced_to: 65
  - symbol: W  # 80
    coordinates: [  0.660805327884007,  0.504866104011890,  0.244127960920000 ]
    mass: 183.840000
    reduced_to: 65
  - symbol: W  # 81
    coordinates: [  0.077639004944504,  0.421409628816620,  0.244125375385455 ]
    mass: 183.840000
    reduced_to: 81
  - symbol: W  # 82
    coordinates: [  0.077639005959943,  0.671409628907705,  0.244125375101818 ]
    mass: 183.840000
    reduced_to: 81
  - symbol: W  # 83
    coordinates: [  0.827639007737228,  0.921409627140213,  0.244125373916364 ]
    mass: 183.840000
    reduced_to: 81
  - symbol: W  # 84
    coordinates: [  0.827639004922591,  0.671409629998914,  0.244125371934545 ]
    mass: 183.840000
    reduced_to: 81
  - symbol: W  # 85
    coordinates: [  0.077639008005434,  0.921409626255095,  0.244125371014545 ]
    mass: 183.840000
    reduced_to: 81
  - symbol: W  # 86
    coordinates: [  0.577639006451897,  0.921409628670350,  0.244125370440000 ]
    mass: 183.840000
    reduced_to: 81
  - symbol: W  # 87
    coordinates: [  0.327639006815539,  0.421409631298239,  0.244125369523636 ]
    mass: 183.840000
    reduced_to: 81
  - symbol: W  # 88
    coordinates: [  0.577639008146303,  0.171409628660210,  0.244125367930909 ]
    mass: 183.840000
    reduced_to: 81
  - symbol: W  # 89
    coordinates: [  0.827639007204485,  0.171409630449057,  0.244125367789091 ]
    mass: 183.840000
    reduced_to: 81
  - symbol: W  # 90
    coordinates: [  0.077639008939998,  0.171409627783281,  0.244125367400000 ]
    mass: 183.840000
    reduced_to: 81
  - symbol: W  # 91
    coordinates: [  0.327639006747606,  0.171409632883970,  0.244125367349091 ]
    mass: 183.840000
    reduced_to: 81
  - symbol: W  # 92
    coordinates: [  0.827639004740256,  0.421409631478722,  0.244125367309091 ]
    mass: 183.840000
    reduced_to: 81
  - symbol: W  # 93
    coordinates: [  0.327639007303582,  0.671409631955889,  0.244125366545455 ]
    mass: 183.840000
    reduced_to: 81
  - symbol: W  # 94
    coordinates: [  0.327639007310039,  0.921409628247963,  0.244125365527273 ]
    mass: 183.840000
    reduced_to: 81
  - symbol: W  # 95
    coordinates: [  0.577639000649090,  0.421409633205060,  0.244125364818182 ]
    mass: 183.840000
    reduced_to: 81
  - symbol: W  # 96
    coordinates: [  0.577639005727322,  0.671409629845368,  0.244125362574545 ]
    mass: 183.840000
    reduced_to: 81
  - symbol: Se # 97
    coordinates: [  0.578516157688941,  0.255790875039688,  0.730571826818182 ]
    mass: 78.960000
    reduced_to: 97
  - symbol: Se # 98
    coordinates: [  0.578516164245541,  0.505790871572542,  0.730571821098182 ]
    mass: 78.960000
    reduced_to: 97
  - symbol: Se # 99
    coordinates: [  0.578516158629974,  0.005790868492593,  0.730571819945455 ]
    mass: 78.960000
    reduced_to: 97
  - symbol: Se # 100
    coordinates: [  0.328516151531363,  0.755790878430956,  0.730571816927273 ]
    mass: 78.960000
    reduced_to: 97
  - symbol: Se # 101
    coordinates: [  0.328516150213011,  0.505790874500664,  0.730571815145455 ]
    mass: 78.960000
    reduced_to: 97
  - symbol: Se # 102
    coordinates: [  0.578516162002460,  0.755790869320981,  0.730571813640000 ]
    mass: 78.960000
    reduced_to: 97
  - symbol: Se # 103
    coordinates: [  0.828516162229418,  0.005790865867478,  0.730571810050909 ]
    mass: 78.960000
    reduced_to: 97
  - symbol: Se # 104
    coordinates: [  0.328516150985604,  0.005790875671832,  0.730571806974545 ]
    mass: 78.960000
    reduced_to: 97
  - symbol: Se # 105
    coordinates: [  0.328516144989255,  0.255790877858997,  0.730571806636364 ]
    mass: 78.960000
    reduced_to: 97
  - symbol: Se # 106
    coordinates: [  0.828516163018586,  0.255790872143417,  0.730571806181818 ]
    mass: 78.960000
    reduced_to: 97
  - symbol: Se # 107
    coordinates: [  0.078516152624789,  0.755790868847652,  0.730571802436364 ]
    mass: 78.960000
    reduced_to: 97
  - symbol: Se # 108
    coordinates: [  0.078516156829136,  0.005790870533342,  0.730571800105454 ]
    mass: 78.960000
    reduced_to: 97
  - symbol: Se # 109
    coordinates: [  0.828516158537368,  0.755790862930177,  0.730571799847273 ]
    mass: 78.960000
    reduced_to: 97
  - symbol: Se # 110
    coordinates: [  0.828516163089498,  0.505790867592551,  0.730571791592727 ]
    mass: 78.960000
    reduced_to: 97
  - symbol: Se # 111
    coordinates: [  0.078516153478155,  0.255790874466961,  0.730571790218182 ]
    mass: 78.960000
    reduced_to: 97
  - symbol: Se # 112
    coordinates: [  0.078516151312461,  0.505790871046178,  0.730571789167273 ]
    mass: 78.960000
    reduced_to: 97
  - symbol: Se # 113
    coordinates: [  0.411970542484043,  0.589010551863284,  0.730570303640000 ]
    mass: 78.960000
    reduced_to: 113
  - symbol: Se # 114
    coordinates: [  0.661970550665714,  0.089010541786813,  0.730570302247273 ]
    mass: 78.960000
    reduced_to: 113
  - symbol: Se # 115
    coordinates: [  0.661970552180383,  0.339010547185471,  0.730570300763636 ]
    mass: 78.960000
    reduced_to: 113
  - symbol: Se # 116
    coordinates: [  0.411970537934100,  0.339010550459541,  0.730570298854545 ]
    mass: 78.960000
    reduced_to: 113
  - symbol: Se # 117
    coordinates: [  0.411970543720949,  0.839010549088995,  0.730570295512727 ]
    mass: 78.960000
    reduced_to: 113
  - symbol: Se # 118
    coordinates: [  0.411970539522382,  0.089010549351079,  0.730570294610909 ]
    mass: 78.960000
    reduced_to: 113
  - symbol: Se # 119
    coordinates: [  0.661970549436251,  0.839010541753076,  0.730570291410909 ]
    mass: 78.960000
    reduced_to: 113
  - symbol: Se # 120
    coordinates: [  0.661970556551648,  0.589010541448188,  0.730570288683636 ]
    mass: 78.960000
    reduced_to: 113
  - symbol: Se # 121
    coordinates: [  0.161970541577806,  0.839010547090018,  0.730570286421818 ]
    mass: 78.960000
    reduced_to: 113
  - symbol: Se # 122
    coordinates: [  0.911970550826193,  0.089010545161335,  0.730570285312727 ]
    mass: 78.960000
    reduced_to: 113
  - symbol: Se # 123
    coordinates: [  0.911970548898770,  0.839010538001552,  0.730570280545454 ]
    mass: 78.960000
    reduced_to: 113
  - symbol: Se # 124
    coordinates: [  0.161970538828817,  0.589010543077460,  0.730570280123636 ]
    mass: 78.960000
    reduced_to: 113
  - symbol: Se # 125
    coordinates: [  0.161970541721491,  0.089010546970813,  0.730570278116364 ]
    mass: 78.960000
    reduced_to: 113
  - symbol: Se # 126
    coordinates: [  0.161970536175766,  0.339010551414911,  0.730570270832727 ]
    mass: 78.960000
    reduced_to: 113
  - symbol: Se # 127
    coordinates: [  0.911970550272815,  0.339010545176140,  0.730570270356364 ]
    mass: 78.960000
    reduced_to: 113
  - symbol: Se # 128
    coordinates: [  0.911970546921646,  0.589010538916218,  0.730570268800000 ]
    mass: 78.960000
    reduced_to: 113
  - symbol: Se # 129
    coordinates: [  0.495288667207036,  0.422469168529967,  0.730568977552727 ]
    mass: 78.960000
    reduced_to: 129
  - symbol: Se # 130
    coordinates: [  0.495288662495606,  0.172469168516638,  0.730568976018182 ]
    mass: 78.960000
    reduced_to: 129
  - symbol: Se # 131
    coordinates: [  0.495288672799198,  0.672469166125182,  0.730568974356364 ]
    mass: 78.960000
    reduced_to: 129
  - symbol: Se # 132
    coordinates: [  0.745288675777370,  0.172469161683069,  0.730568971480000 ]
    mass: 78.960000
    reduced_to: 129
  - symbol: Se # 133
    coordinates: [  0.495288665275228,  0.922469164062542,  0.730568967600000 ]
    mass: 78.960000
    reduced_to: 129
  - symbol: Se # 134
    coordinates: [  0.245288660838513,  0.672469166198079,  0.730568966960000 ]
    mass: 78.960000
    reduced_to: 129
  - symbol: Se # 135
    coordinates: [  0.745288677088888,  0.922469153776473,  0.730568965472727 ]
    mass: 78.960000
    reduced_to: 129
  - symbol: Se # 136
    coordinates: [  0.745288679548680,  0.422469163224053,  0.730568959345455 ]
    mass: 78.960000
    reduced_to: 129
  - symbol: Se # 137
    coordinates: [  0.245288666605010,  0.922469167139271,  0.730568958767273 ]
    mass: 78.960000
    reduced_to: 129
  - symbol: Se # 138
    coordinates: [ -0.004711332153895,  0.922469162461098,  0.730568956527273 ]
    mass: 78.960000
    reduced_to: 129
  - symbol: Se # 139
    coordinates: [  0.245288660301620,  0.172469167993275,  0.730568954323636 ]
    mass: 78.960000
    reduced_to: 129
  - symbol: Se # 140
    coordinates: [  0.745288673040227,  0.672469159259698,  0.730568953007273 ]
    mass: 78.960000
    reduced_to: 129
  - symbol: Se # 141
    coordinates: [  0.245288658966967,  0.422469165861472,  0.730568952996364 ]
    mass: 78.960000
    reduced_to: 129
  - symbol: Se # 142
    coordinates: [ -0.004711329126007,  0.172469164946245,  0.730568949181818 ]
    mass: 78.960000
    reduced_to: 129
  - symbol: Se # 143
    coordinates: [ -0.004711334212638,  0.672469158409478,  0.730568948847273 ]
    mass: 78.960000
    reduced_to: 129
  - symbol: Se # 144
    coordinates: [ -0.004711332715132,  0.422469162841178,  0.730568937305455 ]
    mass: 78.960000
    reduced_to: 129
  - symbol: Se # 145
    coordinates: [  0.411973271063143,  0.588944519791094,  0.610560922127273 ]
    mass: 78.960000
    reduced_to: 145
  - symbol: Se # 146
    coordinates: [  0.661973262299918,  0.088944522527190,  0.610560920930909 ]
    mass: 78.960000
    reduced_to: 145
  - symbol: Se # 147
    coordinates: [  0.661973259152507,  0.338944519769875,  0.610560918269091 ]
    mass: 78.960000
    reduced_to: 145
  - symbol: Se # 148
    coordinates: [  0.411973276451811,  0.338944517242177,  0.610560916974545 ]
    mass: 78.960000
    reduced_to: 145
  - symbol: Se # 149
    coordinates: [  0.411973272613057,  0.838944511122216,  0.610560913105455 ]
    mass: 78.960000
    reduced_to: 145
  - symbol: Se # 150
    coordinates: [  0.411973276259057,  0.088944516583006,  0.610560913072727 ]
    mass: 78.960000
    reduced_to: 145
  - symbol: Se # 151
    coordinates: [  0.661973259040917,  0.838944525051772,  0.610560909040000 ]
    mass: 78.960000
    reduced_to: 145
  - symbol: Se # 152
    coordinates: [  0.661973259277517,  0.588944517681520,  0.610560906890909 ]
    mass: 78.960000
    reduced_to: 145
  - symbol: Se # 153
    coordinates: [  0.161973272429058,  0.838944512515557,  0.610560906861818 ]
    mass: 78.960000
    reduced_to: 145
  - symbol: Se # 154
    coordinates: [  0.911973260515495,  0.088944522201384,  0.610560905058182 ]
    mass: 78.960000
    reduced_to: 145
  - symbol: Se # 155
    coordinates: [  0.911973264830755,  0.838944519418611,  0.610560902545454 ]
    mass: 78.960000
    reduced_to: 145
  - symbol: Se # 156
    coordinates: [  0.161973274624044,  0.588944519255997,  0.610560900607273 ]
    mass: 78.960000
    reduced_to: 145
  - symbol: Se # 157
    coordinates: [  0.161973272978037,  0.088944509875934,  0.610560898276364 ]
    mass: 78.960000
    reduced_to: 145
  - symbol: Se # 158
    coordinates: [  0.161973273354052,  0.338944514195301,  0.610560890778182 ]
    mass: 78.960000
    reduced_to: 145
  - symbol: Se # 159
    coordinates: [  0.911973262591940,  0.338944513270366,  0.610560890443636 ]
    mass: 78.960000
    reduced_to: 145
  - symbol: Se # 160
    coordinates: [  0.911973261421496,  0.588944521496123,  0.610560888465454 ]
    mass: 78.960000
    reduced_to: 145
  - symbol: Se # 161
    coordinates: [  0.578437589867628,  0.255849148212269,  0.610557622578182 ]
    mass: 78.960000
    reduced_to: 161
  - symbol: Se # 162
    coordinates: [  0.578437590299619,  0.005849151697177,  0.610557617021818 ]
    mass: 78.960000
    reduced_to: 161
  - symbol: Se # 163
    coordinates: [  0.578437582835972,  0.505849149525253,  0.610557617007273 ]
    mass: 78.960000
    reduced_to: 161
  - symbol: Se # 164
    coordinates: [  0.328437598591320,  0.505849149736164,  0.610557612254545 ]
    mass: 78.960000
    reduced_to: 161
  - symbol: Se # 165
    coordinates: [  0.328437596796239,  0.755849144862724,  0.610557612010909 ]
    mass: 78.960000
    reduced_to: 161
  - symbol: Se # 166
    coordinates: [  0.578437585944058,  0.755849146544465,  0.610557609196364 ]
    mass: 78.960000
    reduced_to: 161
  - symbol: Se # 167
    coordinates: [  0.828437582274525,  0.005849155061160,  0.610557605589091 ]
    mass: 78.960000
    reduced_to: 161
  - symbol: Se # 168
    coordinates: [  0.328437597699183,  0.005849144273132,  0.610557603796364 ]
    mass: 78.960000
    reduced_to: 161
  - symbol: Se # 169
    coordinates: [  0.328437600416510,  0.255849142970785,  0.610557603585455 ]
    mass: 78.960000
    reduced_to: 161
  - symbol: Se # 170
    coordinates: [  0.828437579574647,  0.255849150181839,  0.610557601167273 ]
    mass: 78.960000
    reduced_to: 161
  - symbol: Se # 171
    coordinates: [  0.078437593516591,  0.755849148460621,  0.610557597690909 ]
    mass: 78.960000
    reduced_to: 161
  - symbol: Se # 172
    coordinates: [  0.078437590020368,  0.005849143471861,  0.610557597596364 ]
    mass: 78.960000
    reduced_to: 161
  - symbol: Se # 173
    coordinates: [  0.828437581539065,  0.755849154597070,  0.610557595570909 ]
    mass: 78.960000
    reduced_to: 161
  - symbol: Se # 174
    coordinates: [  0.828437581408640,  0.505849150438491,  0.610557587360000 ]
    mass: 78.960000
    reduced_to: 161
  - symbol: Se # 175
    coordinates: [  0.078437595568692,  0.255849142956752,  0.610557586683636 ]
    mass: 78.960000
    reduced_to: 161
  - symbol: Se # 176
    coordinates: [  0.078437590774556,  0.505849152647012,  0.610557585094545 ]
    mass: 78.960000
    reduced_to: 161
  - symbol: Se # 177
    coordinates: [  0.495375815451719,  0.422460279825871,  0.610550043825455 ]
    mass: 78.960000
    reduced_to: 177
  - symbol: Se # 178
    coordinates: [  0.495375820756583,  0.172460278736570,  0.610550042207273 ]
    mass: 78.960000
    reduced_to: 177
  - symbol: Se # 179
    coordinates: [  0.495375814949879,  0.672460274956663,  0.610550039381818 ]
    mass: 78.960000
    reduced_to: 177
  - symbol: Se # 180
    coordinates: [  0.745375807038061,  0.172460281987179,  0.610550037032727 ]
    mass: 78.960000
    reduced_to: 177
  - symbol: Se # 181
    coordinates: [  0.495375816539632,  0.922460276495534,  0.610550034916364 ]
    mass: 78.960000
    reduced_to: 177
  - symbol: Se # 182
    coordinates: [  0.245375822972349,  0.672460276398401,  0.610550033447273 ]
    mass: 78.960000
    reduced_to: 177
  - symbol: Se # 183
    coordinates: [  0.745375809817593,  0.922460283893238,  0.610550031200000 ]
    mass: 78.960000
    reduced_to: 177
  - symbol: Se # 184
    coordinates: [  0.245375823480560,  0.922460271165431,  0.610550025640000 ]
    mass: 78.960000
    reduced_to: 177
  - symbol: Se # 185
    coordinates: [  0.745375805810896,  0.422460278029349,  0.610550024872727 ]
    mass: 78.960000
    reduced_to: 177
  - symbol: Se # 186
    coordinates: [ -0.004624188759873,  0.922460280159733,  0.610550022858182 ]
    mass: 78.960000
    reduced_to: 177
  - symbol: Se # 187
    coordinates: [  0.245375824778337,  0.172460272403846,  0.610550020745455 ]
    mass: 78.960000
    reduced_to: 177
  - symbol: Se # 188
    coordinates: [  0.245375826524384,  0.422460276151250,  0.610550020581818 ]
    mass: 78.960000