================================================================================
| EXCITING CARBON started                                                      =
| version hash id:                                                             =
|                                                                              =
| Date (DD-MM-YYYY) : 22-12-2016                                               =
| Time (hh:mm:ss)   : 13:32:50                                                 =
|                                                                              =
| All units are atomic (Hartree, Bohr, etc.)                                   =
================================================================================

********************************************************************************
| Structural optimisation starting from atomic densities                       *
********************************************************************************

++++++++++++++++++++++++++++++++++++++++++++++++++++++++++++++++++++++++++++++++
| Starting initialization                                                      +
++++++++++++++++++++++++++++++++++++++++++++++++++++++++++++++++++++++++++++++++

 Lattice vectors (cartesian) :
      3.2527218274      3.2527218274     -0.2048081647
      3.2527218274     -0.2048081647      3.2527218274
     -0.2048081647      3.2527218274      3.2527218274

 Reciprocal lattice vectors (cartesian) :
      0.9381590690      0.9381590690     -0.8790877290
      0.9381590690     -0.8790877290      0.9381590690
     -0.8790877290      0.9381590690      0.9381590690

 Unit cell volume                           :      75.3210329478
 Brillouin zone volume                      :       3.2932396667

 Species :    1 (C)
     parameters loaded from                 :    C.xml
     name                                   :    carbon
     nuclear charge                         :      -6.00000000
     electronic charge                      :       6.00000000
     atomic mass                            :   21894.16673000
     muffin-tin radius                      :       1.30000000
     # of radial points in muffin-tin       :     250

     atomic positions (lattice) :
       1 :   0.00000000  0.00000000  0.00000000
       2 :   0.25000000  0.25000000  0.25000000

 Total number of atoms per unit cell        :       2

 Spin treatment                             :    spin-unpolarised

 Number of Bravais lattice symmetries       :      12
 Number of crystal symmetries               :      12

 k-point grid                               :       6    6    6
 Total number of k-points                   :      32
 k-point set is reduced with crystal symmetries

 R^MT_min * |G+k|_max (rgkmax)              :       7.00000000
 Species with R^MT_min                      :       1 (C)
 Maximum |G+k| for APW functions            :       5.38461538
 Maximum |G| for potential and density      :      18.00000000

 G-vector grid sizes                        :      27    27    27
 Total number of G-vectors                  :    7383

 Maximum angular momentum used for
     APW functions                          :       8
     computing H and O matrix elements      :       8
     potential and density                  :       8
     inner part of muffin-tin               :       2

 Total nuclear charge                       :     -12.00000000
 Total electronic charge                    :      12.00000000
 Total core charge                          :       4.00000000
 Total valence charge                       :       8.00000000

 Number of empty states                     :       5
 Total number of valence states             :      10

 Maximum Hamiltonian size                   :     218
 Maximum number of plane-waves              :     210
 Total number of local-orbitals             :       8

 Exchange-correlation type                  :      22
     PBEsol, Phys. Rev. Lett. 100, 136406 (2008)
     Generalised gradient approximation (GGA)

 Smearing scheme                            :    Gaussian
 Smearing width                             :       0.00010000

 Using multisecant Broyden potential mixing

++++++++++++++++++++++++++++++++++++++++++++++++++++++++++++++++++++++++++++++++
| Ending initialization                                                        +
++++++++++++++++++++++++++++++++++++++++++++++++++++++++++++++++++++++++++++++++

********************************************************************************
| Groundstate module started                                                   *
********************************************************************************
 Output level for this task is set to normal

++++++++++++++++++++++++++++++++++++++++++++++++++++++++++++++++++++++++++++++++
| Self-consistent loop started                                                 +
++++++++++++++++++++++++++++++++++++++++++++++++++++++++++++++++++++++++++++++++
 Density and potential initialised from atomic data


++++++++++++++++++++++++++++++++++++++++++++++++++++++++++++++++++++++++++++++++
| SCF iteration number :    1                                                  +
++++++++++++++++++++++++++++++++++++++++++++++++++++++++++++++++++++++++++++++++
 Total energy                               :       -76.86431734
 _______________________________________________________________
 Fermi energy                               :         0.48471797
 Kinetic energy                             :        75.06774917
 Coulomb energy                             :      -141.33172764
 Exchange energy                            :       -10.10034838
 Correlation energy                         :        -0.49999049

 DOS at Fermi energy (states/Ha/cell)       :         0.00000000

 Electron charges :
     core                                   :         4.00000000
     core leakage                           :         0.00056853
     valence                                :         8.00000000
     interstitial                           :         3.99535039
     charge in muffin-tin spheres :
                  atom     1     C          :         4.00232481
                  atom     2     C          :         4.00232481
     total charge in muffin-tins            :         8.00464961
     total charge                           :        12.00000000

 Estimated fundamental gap                  :         0.15976904
        valence-band maximum at    1      0.0000  0.0000  0.0000
     conduction-band minimum at   13      0.5000  0.5000  0.0000

 Wall time (seconds)                        :         8.79

++++++++++++++++++++++++++++++++++++++++++++++++++++++++++++++++++++++++++++++++
| SCF iteration number :    2                                                  +
++++++++++++++++++++++++++++++++++++++++++++++++++++++++++++++++++++++++++++++++
 Total energy                               :       -76.52885531
 _______________________________________________________________
 Fermi energy                               :         0.49392620
 Kinetic energy                             :        75.25465855
 Coulomb energy                             :      -141.20066884
 Exchange energy                            :       -10.08169705
 Correlation energy                         :        -0.50114797

 DOS at Fermi energy (states/Ha/cell)       :         0.00000000

 Electron charges :
     core                                   :         4.00000000
     core leakage                           :         0.00057273
     valence                                :         8.00000000
     interstitial                           :         4.03528918
     charge in muffin-tin spheres :
                  atom     1     C          :         3.98235541
                  atom     2     C          :         3.98235541
     total charge in muffin-tins            :         7.96471082
     total charge                           :        12.00000000

 Estimated fundamental gap                  :         0.14864367
        valence-band maximum at    1      0.0000  0.0000  0.0000
     conduction-band minimum at   13      0.5000  0.5000  0.0000

 Wall time (seconds)                        :        14.31

 RMS change in effective potential (target) :   2.49913      ( 0.100000E-05)
 Absolute change in total energy   (target) :  0.335462      ( 0.100000E-05)
 Charge distance                   (target) :  0.765453E-02  ( 0.100000E-04)
 Abs. change in max-nonIBS-force   (target) :  0.711479E-01  ( 0.500000E-04)

++++++++++++++++++++++++++++++++++++++++++++++++++++++++++++++++++++++++++++++++
| SCF iteration number :    3                                                  +
++++++++++++++++++++++++++++++++++++++++++++++++++++++++++++++++++++++++++++++++
 Total energy                               :       -76.28402940
 _______________________________________________________________
 Fermi energy                               :         0.50070937
 Kinetic energy                             :        75.39080550
 Coulomb energy                             :      -141.10491728
 Exchange energy                            :       -10.06788343
 Correlation energy                         :        -0.50203419

 DOS at Fermi energy (states/Ha/cell)       :         0.00000000

 Electron charges :
     core                                   :         4.00000000
     core leakage                           :         0.00057551
     valence                                :         8.00000000
     interstitial                           :         4.06557596
     charge in muffin-tin spheres :
                  atom     1     C          :         3.96721202
                  atom     2     C          :         3.96721202
     total charge in muffin-tins            :         7.93442404
     total charge                           :        12.00000000

 Estimated fundamental gap                  :         0.14016717
        valence-band maximum at    1      0.0000  0.0000  0.0000
     conduction-band minimum at   13      0.5000  0.5000  0.0000

 Wall time (seconds)                        :        19.82

 RMS change in effective potential (target) :   1.83181      ( 0.100000E-05)
 Absolute change in total energy   (target) :  0.244826      ( 0.100000E-05)
 Charge distance                   (target) :  0.582830E-02  ( 0.100000E-04)
 Abs. change in max-nonIBS-force   (target) :  0.377589E-01  ( 0.500000E-04)

++++++++++++++++++++++++++++++++++++++++++++++++++++++++++++++++++++++++++++++++
| SCF iteration number :    4                                                  +
++++++++++++++++++++++++++++++++++++++++++++++++++++++++++++++++++++++++++++++++
 Total energy                               :       -76.02375280
 _______________________________________________________________
 Fermi energy                               :         0.50956867
 Kinetic energy                             :        75.54622653
 Coulomb energy                             :      -141.01582368
 Exchange energy                            :       -10.05081621
 Correlation energy                         :        -0.50333945

 DOS at Fermi energy (states/Ha/cell)       :         0.00000000

 Electron charges :
     core                                   :         4.00000000
     core leakage                           :         0.00057424
     valence                                :         8.00000000
     interstitial                           :         4.10861614
     charge in muffin-tin spheres :
                  atom     1     C          :         3.94569193
                  atom     2     C          :         3.94569193
     total charge in muffin-tins            :         7.89138386
     total charge                           :        12.00000000

 Estimated fundamental gap                  :         0.12708434
        valence-band maximum at    1      0.0000  0.0000  0.0000
     conduction-band minimum at   13      0.5000  0.5000  0.0000

 Wall time (seconds)                        :        25.37

 RMS change in effective potential (target) :  0.465943E-01  ( 0.100000E-05)
 Absolute change in total energy   (target) :  0.260277      ( 0.100000E-05)
 Charge distance                   (target) :  0.853289E-02  ( 0.100000E-04)
 Abs. change in max-nonIBS-force   (target) :  0.203768E-01  ( 0.500000E-04)

++++++++++++++++++++++++++++++++++++++++++++++++++++++++++++++++++++++++++++++++
| SCF iteration number :    5                                                  +
++++++++++++++++++++++++++++++++++++++++++++++++++++++++++++++++++++++++++++++++
 Total energy                               :       -75.82026383
 _______________________________________________________________
 Fermi energy                               :         0.51389148
 Kinetic energy                             :        75.64812342
 Coulomb energy                             :      -140.92403572
 Exchange energy                            :       -10.04044656
 Correlation energy                         :        -0.50390498

 DOS at Fermi energy (states/Ha/cell)       :         0.00000000

 Electron charges :
     core                                   :         4.00000000
     core leakage                           :         0.00057904
     valence                                :         8.00000000
     interstitial                           :         4.12866622
     charge in muffin-tin spheres :
                  atom     1     C          :         3.93566689
                  atom     2     C          :         3.93566689
     total charge in muffin-tins            :         7.87133378
     total charge                           :        12.00000000

 Estimated fundamental gap                  :         0.12223995
        valence-band maximum at    1      0.0000  0.0000  0.0000
     conduction-band minimum at   13      0.5000  0.5000  0.0000

 Wall time (seconds)                        :        30.88

 RMS change in effective potential (target) :  0.240580E-01  ( 0.100000E-05)
 Absolute change in total energy   (target) :  0.203489      ( 0.100000E-05)
 Charge distance                   (target) :  0.385189E-02  ( 0.100000E-04)
 Abs. change in max-nonIBS-force   (target) :  0.153268E-01  ( 0.500000E-04)

++++++++++++++++++++++++++++++++++++++++++++++++++++++++++++++++++++++++++++++++
| SCF iteration number :    6                                                  +
++++++++++++++++++++++++++++++++++++++++++++++++++++++++++++++++++++++++++++++++
 Total energy                               :       -75.88341385
 _______________________________________________________________
 Fermi energy                               :         0.51263450
 Kinetic energy                             :        75.61705506
 Coulomb energy                             :      -140.95301263
 Exchange energy                            :       -10.04373118
 Correlation energy                         :        -0.50372509

 DOS at Fermi energy (states/Ha/cell)       :         0.00000000

 Electron charges :
     core                                   :         4.00000000
     core leakage                           :         0.00057755
     valence                                :         8.00000000
     interstitial                           :         4.12231960
     charge in muffin-tin spheres :
                  atom     1     C          :         3.93884020
                  atom     2     C          :         3.93884020
     total charge in muffin-tins            :         7.87768040
     total charge                           :        12.00000000

 Estimated fundamental gap                  :         0.12378877
        valence-band maximum at    1      0.0000  0.0000  0.0000
     conduction-band minimum at   13      0.5000  0.5000  0.0000

 Wall time (seconds)                        :        36.39

 RMS change in effective potential (target) :  0.384259E-03  ( 0.100000E-05)
 Absolute change in total energy   (target) :  0.631500E-01  ( 0.100000E-05)
 Charge distance                   (target) :  0.123706E-02  ( 0.100000E-04)
 Abs. change in max-nonIBS-force   (target) :  0.779301E-02  ( 0.500000E-04)

++++++++++++++++++++++++++++++++++++++++++++++++++++++++++++++++++++++++++++++++
| SCF iteration number :    7                                                  +
++++++++++++++++++++++++++++++++++++++++++++++++++++++++++++++++++++++++++++++++
 Total energy                               :       -75.88467375
 _______________________________________________________________
 Fermi energy                               :         0.51259235
 Kinetic energy                             :        75.61641907
 Coulomb energy                             :      -140.95358189
 Exchange energy                            :       -10.04378900
 Correlation energy                         :        -0.50372193

 DOS at Fermi energy (states/Ha/cell)       :         0.00000000

 Electron charges :
     core                                   :         4.00000000
     core leakage                           :         0.00057751
     valence                                :         8.00000000
     interstitial                           :         4.12221241
     charge in muffin-tin spheres :
                  atom     1     C          :         3.93889380
                  atom     2     C          :         3.93889380
     total charge in muffin-tins            :         7.87778759
     total charge                           :        12.00000000

 Estimated fundamental gap                  :         0.12381474
        valence-band maximum at    1      0.0000  0.0000  0.0000
     conduction-band minimum at   13      0.5000  0.5000  0.0000

 Wall time (seconds)                        :        41.90

 RMS change in effective potential (target) :  0.602621E-04  ( 0.100000E-05)
 Absolute change in total energy   (target) :  0.125990E-02  ( 0.100000E-05)
 Charge distance                   (target) :  0.232203E-04  ( 0.100000E-04)
 Abs. change in max-nonIBS-force   (target) :  0.339504E-04  ( 0.500000E-04)

++++++++++++++++++++++++++++++++++++++++++++++++++++++++++++++++++++++++++++++++
| SCF iteration number :    8                                                  +
++++++++++++++++++++++++++++++++++++++++++++++++++++++++++++++++++++++++++++++++
 Total energy                               :       -75.88465480
 _______________________________________________________________
 Fermi energy                               :         0.51259743
 Kinetic energy                             :        75.61641824
 Coulomb energy                             :      -140.95356250
 Exchange energy                            :       -10.04378856
 Correlation energy                         :        -0.50372199

 DOS at Fermi energy (states/Ha/cell)       :         0.00000000

 Electron charges :
     core                                   :         4.00000000
     core leakage                           :         0.00057752
     valence                                :         8.00000000
     interstitial                           :         4.12221158
     charge in muffin-tin spheres :
                  atom     1     C          :         3.93889421
                  atom     2     C          :         3.93889421
     total charge in muffin-tins            :         7.87778842
     total charge                           :        12.00000000

 Estimated fundamental gap                  :         0.12381414
        valence-band maximum at    1      0.0000  0.0000  0.0000
     conduction-band minimum at   13      0.5000  0.5000  0.0000

 Wall time (seconds)                        :        47.42

 RMS change in effective potential (target) :  0.732615E-05  ( 0.100000E-05)
 Absolute change in total energy   (target) :  0.189475E-04  ( 0.100000E-05)
 Charge distance                   (target) :  0.648631E-05  ( 0.100000E-04)
 Abs. change in max-nonIBS-force   (target) :  0.787824E-04  ( 0.500000E-04)

++++++++++++++++++++++++++++++++++++++++++++++++++++++++++++++++++++++++++++++++
| SCF iteration number :    9                                                  +
++++++++++++++++++++++++++++++++++++++++++++++++++++++++++++++++++++++++++++++++
 Total energy                               :       -75.88462190
 _______________________________________________________________
 Fermi energy                               :         0.51259737
 Kinetic energy                             :        75.61643588
 Coulomb energy                             :      -140.95354884
 Exchange energy                            :       -10.04378687
 Correlation energy                         :        -0.50372207

 DOS at Fermi energy (states/Ha/cell)       :         0.00000000

 Electron charges :
     core                                   :         4.00000000
     core leakage                           :         0.00057752
     valence                                :         8.00000000
     interstitial                           :         4.12221496
     charge in muffin-tin spheres :
                  atom     1     C          :         3.93889252
                  atom     2     C          :         3.93889252
     total charge in muffin-tins            :         7.87778504
     total charge                           :        12.00000000

 Estimated fundamental gap                  :         0.12381351
        valence-band maximum at    1      0.0000  0.0000  0.0000
     conduction-band minimum at   13      0.5000  0.5000  0.0000

 Wall time (seconds)                        :        52.95

 RMS change in effective potential (target) :  0.870308E-06  ( 0.100000E-05)
 Absolute change in total energy   (target) :  0.329058E-04  ( 0.100000E-05)
 Charge distance                   (target) :  0.133233E-05  ( 0.100000E-04)
 Abs. change in max-nonIBS-force   (target) :  0.185626E-04  ( 0.500000E-04)

++++++++++++++++++++++++++++++++++++++++++++++++++++++++++++++++++++++++++++++++
| SCF iteration number :   10                                                  +
++++++++++++++++++++++++++++++++++++++++++++++++++++++++++++++++++++++++++++++++
 Total energy                               :       -75.88462181
 _______________________________________________________________
 Fermi energy                               :         0.51259739
 Kinetic energy                             :        75.61643609
 Coulomb energy                             :      -140.95354895
 Exchange energy                            :       -10.04378687
 Correlation energy                         :        -0.50372207

 DOS at Fermi energy (states/Ha/cell)       :         0.00000000

 Electron charges :
     core                                   :         4.00000000
     core leakage                           :         0.00057752
     valence                                :         8.00000000
     interstitial                           :         4.12221499
     charge in muffin-tin spheres :
                  atom     1     C          :         3.93889251
                  atom     2     C          :         3.93889251
     total charge in muffin-tins            :         7.87778501
     total charge                           :        12.00000000

 Estimated fundamental gap                  :         0.12381349
        valence-band maximum at    1      0.0000  0.0000  0.0000
     conduction-band minimum at   13      0.5000  0.5000  0.0000

 Wall time (seconds)                        :        58.48

 RMS change in effective potential (target) :  0.761035E-07  ( 0.100000E-05)
 Absolute change in total energy   (target) :  0.923358E-07  ( 0.100000E-05)
 Charge distance                   (target) :  0.798307E-08  ( 0.100000E-04)
 Abs. change in max-nonIBS-force   (target) :  0.214165E-07  ( 0.500000E-04)

++++++++++++++++++++++++++++++++++++++++++++++++++++++++++++++++++++++++++++++++
| SCF iteration number :   11                                                  +
++++++++++++++++++++++++++++++++++++++++++++++++++++++++++++++++++++++++++++++++
 Total energy                               :       -75.88462194
 _______________________________________________________________
 Fermi energy                               :         0.51259738
 Kinetic energy                             :        75.61643601
 Coulomb energy                             :      -140.95354900
 Exchange energy                            :       -10.04378688
 Correlation energy                         :        -0.50372207

 DOS at Fermi energy (states/Ha/cell)       :         0.00000000

 Electron charges :
     core                                   :         4.00000000
     core leakage                           :         0.00057752
     valence                                :         8.00000000
     interstitial                           :         4.12221497
     charge in muffin-tin spheres :
                  atom     1     C          :         3.93889251
                  atom     2     C          :         3.93889251
     total charge in muffin-tins            :         7.87778503
     total charge                           :        12.00000000

 Estimated fundamental gap                  :         0.12381350
        valence-band maximum at    1      0.0000  0.0000  0.0000
     conduction-band minimum at   13      0.5000  0.5000  0.0000

 Wall time (seconds)                        :        64.01

 RMS change in effective potential (target) :  0.352168E-07  ( 0.100000E-05)
 Absolute change in total energy   (target) :  0.135705E-06  ( 0.100000E-05)
 Charge distance                   (target) :  0.326113E-08  ( 0.100000E-04)
 Abs. change in max-nonIBS-force   (target) :  0.902375E-08  ( 0.500000E-04)
                                                                                
++++++++++++++++++++++++++++++++++++++++++++++++++++++++++++++++++++++++++++++++
| Convergency criteria checked for the last 2 iterations                       +
| Convergence targets achieved. Performing final SCF iteration                 +
++++++++++++++++++++++++++++++++++++++++++++++++++++++++++++++++++++++++++++++++
 Total energy                               :       -75.88462197
 _______________________________________________________________
 Fermi energy                               :         0.51259738
 Kinetic energy                             :        75.61643599
 Coulomb energy                             :      -140.95354901
 Exchange energy                            :       -10.04378688
 Correlation energy                         :        -0.50372207

 DOS at Fermi energy (states/Ha/cell)       :         0.00000000

 Electron charges :
     core                                   :         4.00000000
     core leakage                           :         0.00057752
     valence                                :         8.00000000
     interstitial                           :         4.12221497
     charge in muffin-tin spheres :
                  atom     1     C          :         3.93889252
                  atom     2     C          :         3.93889252
     total charge in muffin-tins            :         7.87778503
     total charge                           :        12.00000000

 Estimated fundamental gap                  :         0.12381350
        valence-band maximum at    1      0.0000  0.0000  0.0000
     conduction-band minimum at   13      0.5000  0.5000  0.0000

++++++++++++++++++++++++++++++++++++++++++++++++++++++++++++++++++++++++++++++++
| Self-consistent loop stopped                                                 +
++++++++++++++++++++++++++++++++++++++++++++++++++++++++++++++++++++++++++++++++
 STATE.OUT is written

--------------------------------------------------------------------------------
| Writing atomic positions and forces                                          -
--------------------------------------------------------------------------------

 Atomic positions (lattice) :
 atom     1   C  :     0.00000000    0.00000000    0.00000000
 atom     2   C  :     0.25000000    0.25000000    0.25000000

 Total atomic forces including IBS (cartesian) :
 atom     1   C  :    -0.01150868   -0.01150868   -0.01150868
 atom     2   C  :     0.01150868    0.01150868    0.01150868

 Atomic force components including IBS (cartesian) :
 atom     1   C  :    -0.00310638   -0.00310638   -0.00310638   HF force
                 :    -0.00874067   -0.00874067   -0.00874067   core correction
                 :     0.00033837    0.00033837    0.00033837   IBS correction
 atom     2   C  :     0.00310638    0.00310638    0.00310638   HF force
                 :     0.00874067    0.00874067    0.00874067   core correction
                 :    -0.00033837   -0.00033837   -0.00033837   IBS correction

********************************************************************************
| Groundstate module stopped                                                   *
********************************************************************************

********************************************************************************
| Structure-optimization module started                                        *
********************************************************************************
 Output level for this task is set to normal

 Maximum displacement tau_BFGS   is         :         0.3000
 Maximum displacement tau_newton is         :         0.2000

++++++++++++++++++++++++++++++++++++++++++++++++++++++++++++++++++++++++++++++++
| Use L-BFGS-B method for optimizing atomic positions                          +
++++++++++++++++++++++++++++++++++++++++++++++++++++++++++++++++++++++++++++++++

--------------------------------------------------------------------------------
| Optimization step 0: Initialize optimization                                 -
--------------------------------------------------------------------------------
 Maximum force magnitude           (target) :         0.01993362  (  0.00020000)
 Total energy at this optimization step     :       -75.88462197

 Atomic positions at this step (lattice) :
 atom     1   C  :     0.00000000    0.00000000    0.00000000
 atom     2   C  :     0.25000000    0.25000000    0.25000000

 Total atomic forces including IBS (cartesian) :
 atom     1   C  :    -0.01150868   -0.01150868   -0.01150868
 atom     2   C  :     0.01150868    0.01150868    0.01150868

--------------------------------------------------------------------------------
| Optimization step    1    (method = bfgs)                                    -
--------------------------------------------------------------------------------
 Number of investigated configurations      :         1
 Number of total scf iterations             :        16
 Maximum force magnitude           (target) :         0.00037412  (  0.00020000)
 Total energy at this optimization step     :       -75.88500134

 Atomic positions at this step (lattice) :
 atom     1   C  :     0.00000000    0.00000000    0.00000000
 atom     2   C  :     0.25365318    0.25365318    0.25365318

 Total atomic forces including IBS (cartesian) :
 atom     1   C  :     0.00021600    0.00021600    0.00021600
 atom     2   C  :    -0.00021600   -0.00021600   -0.00021600

 Time spent in this optimization step       :        95.41 seconds

--------------------------------------------------------------------------------
| Optimization step    2    (method = bfgs)                                    -
--------------------------------------------------------------------------------
 Number of investigated configurations      :         1
 Number of total scf iterations             :        11
 Maximum force magnitude           (target) :         0.00001487  (  0.00020000)
 Total energy at this optimization step     :       -75.88500158

 Atomic positions at this step (lattice) :
 atom     1   C  :     0.00000000    0.00000000    0.00000000
 atom     2   C  :     0.25358588    0.25358588    0.25358588

 Total atomic forces including IBS (cartesian) :
 atom     1   C  :     0.00000859    0.00000859    0.00000859
 atom     2   C  :    -0.00000859   -0.00000859   -0.00000859

 Time spent in this optimization step       :        63.46 seconds

++++++++++++++++++++++++++++++++++++++++++++++++++++++++++++++++++++++++++++++++
| Force convergence target achieved                                            +
++++++++++++++++++++++++++++++++++++++++++++++++++++++++++++++++++++++++++++++++
 Total energy                               :       -75.88500158
 _______________________________________________________________
 Fermi energy                               :         0.51307791
 Kinetic energy                             :        75.60357406
 Coulomb energy                             :      -140.94323741
 Exchange energy                            :       -10.04160343
 Correlation energy                         :        -0.50373479

 DOS at Fermi energy (states/Ha/cell)       :         0.00000000

 Electron charges :
     core                                   :         4.00000000
     core leakage                           :         0.00057716
     valence                                :         8.00000000
     interstitial                           :         4.13032734
     charge in muffin-tin spheres :
                  atom     1     C          :         3.93483633
                  atom     2     C          :         3.93483633
     total charge in muffin-tins            :         7.86967266
     total charge                           :        12.00000000

 Optimized atomic positions (lattice) :
 atom     1   C  :     0.00000000    0.00000000    0.00000000
 atom     2   C  :     0.25358588    0.25358588    0.25358588

 Total atomic forces including IBS (cartesian) :
 atom     1   C  :     0.00000859    0.00000859    0.00000859
 atom     2   C  :    -0.00000859   -0.00000859   -0.00000859

 Atomic force components including IBS (cartesian) :
 atom     1   C  :     0.00938664    0.00938664    0.00938664   HF force
                 :    -0.00948464   -0.00948464   -0.00948464   core correction
                 :     0.00010658    0.00010658    0.00010658   IBS correction
 atom     2   C  :    -0.00938664   -0.00938664   -0.00938664   HF force
                 :     0.00948464    0.00948464    0.00948464   core correction
                 :    -0.00010658   -0.00010658   -0.00010658   IBS correction

********************************************************************************
| Structure-optimization module stopped                                        *
********************************************************************************

 Total time spent (seconds)                 :       230.05

================================================================================
| EXCITING CARBON stopped                                                      =
================================================================================
