********************************************************************************
*                       GENERAL UTILITY LATTICE PROGRAM                        *
*                                 Julian Gale                                  *
*                       Curtin Institute for Computation                       *
*                    School of Molecular and Life Sciences                     *
*                    Curtin University, Western Australia                      *
********************************************************************************
* Version = 6.0.0 * Last modified =  19th November 2021                        *
********************************************************************************
*  optimise     - perform optimisation run                                     *
*  conv         - constant volume calculation                                  *
*  unfix        - do not fix one atom during optimisation                      *
*  molmec       - molecule option activated, Coulomb subtract 1-2/1-3 terms    *
*  noautobond   - do not compute bonds based on covalent radii                 *
*  unit         - approximate initial Hessian by unit diagonal matrix          *
*  conjugate    - use conjugate gradients minimiser                            *
*  positive     - ensure Hessian acts as positive-definite in Newton-Raphson   *
********************************************************************************

  Job Started  at 13:02.47  3rd February   2022                               

  Number of CPUs =     1

  Host name      = uc2n379.localdomain                     


  Total number of configurations input =      1

********************************************************************************
*  Input for Configuration =   1                                               *
********************************************************************************

  Formula = Zr24O128C192H96                                             

  Number of irreducible atoms/shells =     440


  Total number atoms/shells =     440

  Dimensionality = 3               :  Bulk   



  Cartesian lattice vectors (Angstroms) :

       20.955000    0.000000    0.000000
        0.000000   20.955000    0.000000
        0.000000    0.000000   20.955000

  Cell parameters (Angstroms/Degrees):

  a =      20.9550    alpha =  90.0000
  b =      20.9550    beta  =  90.0000
  c =      20.9550    gamma =  90.0000

  Initial cell volume =        9201.592484 Angs**3

  Temperature of configuration =   0.00     K 

  Pressure of configuration =         0.000 GPa 

  Fractional coordinates of asymmetric unit :

--------------------------------------------------------------------------------
   No.  Atomic       x           y          z         Charge      Occupancy
        Label      (Frac)      (Frac)     (Frac)        (e)         (Frac)  
--------------------------------------------------------------------------------
      1 Zr1   c    0.000000 *  0.000000 *  0.123700 *   0.00000    1.000000    
      2 Zr1   c    0.123700 *  0.000000 *  0.000000 *   0.00000    1.000000    
      3 Zr1   c    0.000000 *  0.123700 *  0.000000 *   0.00000    1.000000    
      4 Zr1   c    0.876300 *  0.000000 *  0.000000 *   0.00000    1.000000    
      5 Zr1   c    0.000000 *  0.876300 *  0.000000 *   0.00000    1.000000    
      6 Zr1   c    0.000000 *  0.000000 *  0.876300 *   0.00000    1.000000    
      7 Zr1   c    0.000000 *  0.500000 *  0.623700 *   0.00000    1.000000    
      8 Zr1   c    0.123700 *  0.500000 *  0.500000 *   0.00000    1.000000    
      9 Zr1   c    0.000000 *  0.623700 *  0.500000 *   0.00000    1.000000    
     10 Zr1   c    0.876300 *  0.500000 *  0.500000 *   0.00000    1.000000    
     11 Zr1   c    0.000000 *  0.376300 *  0.500000 *   0.00000    1.000000    
     12 Zr1   c    0.000000 *  0.500000 *  0.376300 *   0.00000    1.000000    
     13 Zr1   c    0.500000 *  0.000000 *  0.623700 *   0.00000    1.000000    
     14 Zr1   c    0.623700 *  0.000000 *  0.500000 *   0.00000    1.000000    
     15 Zr1   c    0.500000 *  0.123700 *  0.500000 *   0.00000    1.000000    
     16 Zr1   c    0.376300 *  0.000000 *  0.500000 *   0.00000    1.000000    
     17 Zr1   c    0.500000 *  0.876300 *  0.500000 *   0.00000    1.000000    
     18 Zr1   c    0.500000 *  0.000000 *  0.376300 *   0.00000    1.000000    
     19 Zr1   c    0.500000 *  0.500000 *  0.123700 *   0.00000    1.000000    
     20 Zr1   c    0.623700 *  0.500000 *  0.000000 *   0.00000    1.000000    
     21 Zr1   c    0.500000 *  0.623700 *  0.000000 *   0.00000    1.000000    
     22 Zr1   c    0.376300 *  0.500000 *  0.000000 *   0.00000    1.000000    
     23 Zr1   c    0.500000 *  0.376300 *  0.000000 *   0.00000    1.000000    
     24 Zr1   c    0.500000 *  0.500000 *  0.876300 *   0.00000    1.000000    
     25 O2    c    0.071200 *  0.071200 *  0.071200 *   0.00000    1.000000    
     26 O2    c    0.928800 *  0.071200 *  0.928800 *   0.00000    1.000000    
     27 O2    c    0.928800 *  0.928800 *  0.071200 *   0.00000    1.000000    
     28 O2    c    0.071200 *  0.928800 *  0.928800 *   0.00000    1.000000    
     29 O2    c    0.071200 *  0.071200 *  0.928800 *   0.00000    1.000000    
     30 O2    c    0.928800 *  0.071200 *  0.071200 *   0.00000    1.000000    
     31 O2    c    0.071200 *  0.928800 *  0.071200 *   0.00000    1.000000    
     32 O2    c    0.928800 *  0.928800 *  0.928800 *   0.00000    1.000000    
     33 O2    c    0.071200 *  0.571200 *  0.571200 *   0.00000    1.000000    
     34 O2    c    0.928800 *  0.571200 *  0.428800 *   0.00000    1.000000    
     35 O2    c    0.928800 *  0.428800 *  0.571200 *   0.00000    1.000000    
     36 O2    c    0.071200 *  0.428800 *  0.428800 *   0.00000    1.000000    
     37 O2    c    0.071200 *  0.571200 *  0.428800 *   0.00000    1.000000    
     38 O2    c    0.928800 *  0.571200 *  0.571200 *   0.00000    1.000000    
     39 O2    c    0.071200 *  0.428800 *  0.571200 *   0.00000    1.000000    
     40 O2    c    0.928800 *  0.428800 *  0.428800 *   0.00000    1.000000    
     41 O2    c    0.571200 *  0.071200 *  0.571200 *   0.00000    1.000000    
     42 O2    c    0.428800 *  0.071200 *  0.428800 *   0.00000    1.000000    
     43 O2    c    0.428800 *  0.928800 *  0.571200 *   0.00000    1.000000    
     44 O2    c    0.571200 *  0.928800 *  0.428800 *   0.00000    1.000000    
     45 O2    c    0.571200 *  0.071200 *  0.428800 *   0.00000    1.000000    
     46 O2    c    0.428800 *  0.071200 *  0.571200 *   0.00000    1.000000    
     47 O2    c    0.571200 *  0.928800 *  0.571200 *   0.00000    1.000000    
     48 O2    c    0.428800 *  0.928800 *  0.428800 *   0.00000    1.000000    
     49 O2    c    0.571200 *  0.571200 *  0.071200 *   0.00000    1.000000    
     50 O2    c    0.428800 *  0.571200 *  0.928800 *   0.00000    1.000000    
     51 O2    c    0.428800 *  0.428800 *  0.071200 *   0.00000    1.000000    
     52 O2    c    0.571200 *  0.428800 *  0.928800 *   0.00000    1.000000    
     53 O2    c    0.571200 *  0.571200 *  0.928800 *   0.00000    1.000000    
     54 O2    c    0.428800 *  0.571200 *  0.071200 *   0.00000    1.000000    
     55 O2    c    0.571200 *  0.428800 *  0.071200 *   0.00000    1.000000    
     56 O2    c    0.428800 *  0.428800 *  0.928800 *   0.00000    1.000000    
     57 O3    c    0.098800 *  0.000000 *  0.174300 *   0.00000    1.000000    
     58 O3    c    0.174300 *  0.098800 *  0.000000 *   0.00000    1.000000    
     59 O3    c    0.000000 *  0.174300 *  0.098800 *   0.00000    1.000000    
     60 O3    c    0.825700 *  0.098800 *  0.000000 *   0.00000    1.000000    
     61 O3    c    0.000000 *  0.825700 *  0.098800 *   0.00000    1.000000    
     62 O3    c    0.000000 *  0.825700 *  0.901200 *   0.00000    1.000000    
     63 O3    c    0.901200 *  0.000000 *  0.825700 *   0.00000    1.000000    
     64 O3    c    0.825700 *  0.901200 *  0.000000 *   0.00000    1.000000    
     65 O3    c    0.098800 *  0.000000 *  0.825700 *   0.00000    1.000000    
     66 O3    c    0.000000 *  0.098800 *  0.825700 *   0.00000    1.000000    
     67 O3    c    0.825700 *  0.000000 *  0.098800 *   0.00000    1.000000    
     68 O3    c    0.098800 *  0.825700 *  0.000000 *   0.00000    1.000000    
     69 O3    c    0.901200 *  0.000000 *  0.174300 *   0.00000    1.000000    
     70 O3    c    0.174300 *  0.901200 *  0.000000 *   0.00000    1.000000    
     71 O3    c    0.000000 *  0.174300 *  0.901200 *   0.00000    1.000000    
     72 O3    c    0.000000 *  0.901200 *  0.825700 *   0.00000    1.000000    
     73 O3    c    0.825700 *  0.000000 *  0.901200 *   0.00000    1.000000    
     74 O3    c    0.901200 *  0.825700 *  0.000000 *   0.00000    1.000000    
     75 O3    c    0.174300 *  0.000000 *  0.098800 *   0.00000    1.000000    
     76 O3    c    0.098800 *  0.174300 *  0.000000 *   0.00000    1.000000    
     77 O3    c    0.901200 *  0.174300 *  0.000000 *   0.00000    1.000000    
     78 O3    c    0.000000 *  0.901200 *  0.174300 *   0.00000    1.000000    
     79 O3    c    0.174300 *  0.000000 *  0.901200 *   0.00000    1.000000    
     80 O3    c    0.000000 *  0.098800 *  0.174300 *   0.00000    1.000000    
     81 O3    c    0.098800 *  0.500000 *  0.674300 *   0.00000    1.000000    
     82 O3    c    0.174300 *  0.598800 *  0.500000 *   0.00000    1.000000    
     83 O3    c    0.000000 *  0.674300 *  0.598800 *   0.00000    1.000000    
     84 O3    c    0.825700 *  0.598800 *  0.500000 *   0.00000    1.000000    
     85 O3    c    0.000000 *  0.325700 *  0.598800 *   0.00000    1.000000    
     86 O3    c    0.000000 *  0.325700 *  0.401200 *   0.00000    1.000000    
     87 O3    c    0.901200 *  0.500000 *  0.325700 *   0.00000    1.000000    
     88 O3    c    0.825700 *  0.401200 *  0.500000 *   0.00000    1.000000    
     89 O3    c    0.098800 *  0.500000 *  0.325700 *   0.00000    1.000000    
     90 O3    c    0.000000 *  0.598800 *  0.325700 *   0.00000    1.000000    
     91 O3    c    0.825700 *  0.500000 *  0.598800 *   0.00000    1.000000    
     92 O3    c    0.098800 *  0.325700 *  0.500000 *   0.00000    1.000000    
     93 O3    c    0.901200 *  0.500000 *  0.674300 *   0.00000    1.000000    
     94 O3    c    0.174300 *  0.401200 *  0.500000 *   0.00000    1.000000    
     95 O3    c    0.000000 *  0.674300 *  0.401200 *   0.00000    1.000000    
     96 O3    c    0.000000 *  0.401200 *  0.325700 *   0.00000    1.000000    
     97 O3    c    0.825700 *  0.500000 *  0.401200 *   0.00000    1.000000    
     98 O3    c    0.901200 *  0.325700 *  0.500000 *   0.00000    1.000000    
     99 O3    c    0.174300 *  0.500000 *  0.598800 *   0.00000    1.000000    
    100 O3    c    0.098800 *  0.674300 *  0.500000 *   0.00000    1.000000    
    101 O3    c    0.901200 *  0.674300 *  0.500000 *   0.00000    1.000000    
    102 O3    c    0.000000 *  0.401200 *  0.674300 *   0.00000    1.000000    
    103 O3    c    0.174300 *  0.500000 *  0.401200 *   0.00000    1.000000    
    104 O3    c    0.000000 *  0.598800 *  0.674300 *   0.00000    1.000000    
    105 O3    c    0.598800 *  0.000000 *  0.674300 *   0.00000    1.000000    
    106 O3    c    0.674300 *  0.098800 *  0.500000 *   0.00000    1.000000    
    107 O3    c    0.500000 *  0.174300 *  0.598800 *   0.00000    1.000000    
    108 O3    c    0.325700 *  0.098800 *  0.500000 *   0.00000    1.000000    
    109 O3    c    0.500000 *  0.825700 *  0.598800 *   0.00000    1.000000    
    110 O3    c    0.500000 *  0.825700 *  0.401200 *   0.00000    1.000000    
    111 O3    c    0.401200 *  0.000000 *  0.325700 *   0.00000    1.000000    
    112 O3    c    0.325700 *  0.901200 *  0.500000 *   0.00000    1.000000    
    113 O3    c    0.598800 *  0.000000 *  0.325700 *   0.00000    1.000000    
    114 O3    c    0.500000 *  0.098800 *  0.325700 *   0.00000    1.000000    
    115 O3    c    0.325700 *  0.000000 *  0.598800 *   0.00000    1.000000    
    116 O3    c    0.598800 *  0.825700 *  0.500000 *   0.00000    1.000000    
    117 O3    c    0.401200 *  0.000000 *  0.674300 *   0.00000    1.000000    
    118 O3    c    0.674300 *  0.901200 *  0.500000 *   0.00000    1.000000    
    119 O3    c    0.500000 *  0.174300 *  0.401200 *   0.00000    1.000000    
    120 O3    c    0.500000 *  0.901200 *  0.325700 *   0.00000    1.000000    
    121 O3    c    0.325700 *  0.000000 *  0.401200 *   0.00000    1.000000    
    122 O3    c    0.401200 *  0.825700 *  0.500000 *   0.00000    1.000000    
    123 O3    c    0.674300 *  0.000000 *  0.598800 *   0.00000    1.000000    
    124 O3    c    0.598800 *  0.174300 *  0.500000 *   0.00000    1.000000    
    125 O3    c    0.401200 *  0.174300 *  0.500000 *   0.00000    1.000000    
    126 O3    c    0.500000 *  0.901200 *  0.674300 *   0.00000    1.000000    
    127 O3    c    0.674300 *  0.000000 *  0.401200 *   0.00000    1.000000    
    128 O3    c    0.500000 *  0.098800 *  0.674300 *   0.00000    1.000000    
    129 O3    c    0.598800 *  0.500000 *  0.174300 *   0.00000    1.000000    
    130 O3    c    0.674300 *  0.598800 *  0.000000 *   0.00000    1.000000    
    131 O3    c    0.500000 *  0.674300 *  0.098800 *   0.00000    1.000000    
    132 O3    c    0.325700 *  0.598800 *  0.000000 *   0.00000    1.000000    
    133 O3    c    0.500000 *  0.325700 *  0.098800 *   0.00000    1.000000    
    134 O3    c    0.500000 *  0.325700 *  0.901200 *   0.00000    1.000000    
    135 O3    c    0.401200 *  0.500000 *  0.825700 *   0.00000    1.000000    
    136 O3    c    0.325700 *  0.401200 *  0.000000 *   0.00000    1.000000    
    137 O3    c    0.598800 *  0.500000 *  0.825700 *   0.00000    1.000000    
    138 O3    c    0.500000 *  0.598800 *  0.825700 *   0.00000    1.000000    
    139 O3    c    0.325700 *  0.500000 *  0.098800 *   0.00000    1.000000    
    140 O3    c    0.598800 *  0.325700 *  0.000000 *   0.00000    1.000000    
    141 O3    c    0.401200 *  0.500000 *  0.174300 *   0.00000    1.000000    
    142 O3    c    0.674300 *  0.401200 *  0.000000 *   0.00000    1.000000    
    143 O3    c    0.500000 *  0.674300 *  0.901200 *   0.00000    1.000000    
    144 O3    c    0.500000 *  0.401200 *  0.825700 *   0.00000    1.000000    
    145 O3    c    0.325700 *  0.500000 *  0.901200 *   0.00000    1.000000    
    146 O3    c    0.401200 *  0.325700 *  0.000000 *   0.00000    1.000000    
    147 O3    c    0.674300 *  0.500000 *  0.098800 *   0.00000    1.000000    
    148 O3    c    0.598800 *  0.674300 *  0.000000 *   0.00000    1.000000    
    149 O3    c    0.401200 *  0.674300 *  0.000000 *   0.00000    1.000000    
    150 O3    c    0.500000 *  0.401200 *  0.174300 *   0.00000    1.000000    
    151 O3    c    0.674300 *  0.500000 *  0.901200 *   0.00000    1.000000    
    152 O3    c    0.500000 *  0.598800 *  0.174300 *   0.00000    1.000000    
    153 C4    c    0.156300 *  0.000000 *  0.156300 *   0.00000    1.000000    
    154 C4    c    0.156300 *  0.156300 *  0.000000 *   0.00000    1.000000    
    155 C4    c    0.000000 *  0.156300 *  0.156300 *   0.00000    1.000000    
    156 C4    c    0.843700 *  0.156300 *  0.000000 *   0.00000    1.000000    
    157 C4    c    0.000000 *  0.843700 *  0.156300 *   0.00000    1.000000    
    158 C4    c    0.000000 *  0.843700 *  0.843700 *   0.00000    1.000000    
    159 C4    c    0.843700 *  0.000000 *  0.843700 *   0.00000    1.000000    
    160 C4    c    0.843700 *  0.843700 *  0.000000 *   0.00000    1.000000    
    161 C4    c    0.156300 *  0.000000 *  0.843700 *   0.00000    1.000000    
    162 C4    c    0.000000 *  0.156300 *  0.843700 *   0.00000    1.000000    
    163 C4    c    0.843700 *  0.000000 *  0.156300 *   0.00000    1.000000    
    164 C4    c    0.156300 *  0.843700 *  0.000000 *   0.00000    1.000000    
    165 C4    c    0.156300 *  0.500000 *  0.656300 *   0.00000    1.000000    
    166 C4    c    0.156300 *  0.656300 *  0.500000 *   0.00000    1.000000    
    167 C4    c    0.000000 *  0.656300 *  0.656300 *   0.00000    1.000000    
    168 C4    c    0.843700 *  0.656300 *  0.500000 *   0.00000    1.000000    
    169 C4    c    0.000000 *  0.343700 *  0.656300 *   0.00000    1.000000    
    170 C4    c    0.000000 *  0.343700 *  0.343700 *   0.00000    1.000000    
    171 C4    c    0.843700 *  0.500000 *  0.343700 *   0.00000    1.000000    
    172 C4    c    0.843700 *  0.343700 *  0.500000 *   0.00000    1.000000    
    173 C4    c    0.156300 *  0.500000 *  0.343700 *   0.00000    1.000000    
    174 C4    c    0.000000 *  0.656300 *  0.343700 *   0.00000    1.000000    
    175 C4    c    0.843700 *  0.500000 *  0.656300 *   0.00000    1.000000    
    176 C4    c    0.156300 *  0.343700 *  0.500000 *   0.00000    1.000000    
    177 C4    c    0.656300 *  0.000000 *  0.656300 *   0.00000    1.000000    
    178 C4    c    0.656300 *  0.156300 *  0.500000 *   0.00000    1.000000    
    179 C4    c    0.500000 *  0.156300 *  0.656300 *   0.00000    1.000000    
    180 C4    c    0.343700 *  0.156300 *  0.500000 *   0.00000    1.000000    
    181 C4    c    0.500000 *  0.843700 *  0.656300 *   0.00000    1.000000    
    182 C4    c    0.500000 *  0.843700 *  0.343700 *   0.00000    1.000000    
    183 C4    c    0.343700 *  0.000000 *  0.343700 *   0.00000    1.000000    
    184 C4    c    0.343700 *  0.843700 *  0.500000 *   0.00000    1.000000    
    185 C4    c    0.656300 *  0.000000 *  0.343700 *   0.00000    1.000000    
    186 C4    c    0.500000 *  0.156300 *  0.343700 *   0.00000    1.000000    
    187 C4    c    0.343700 *  0.000000 *  0.656300 *   0.00000    1.000000    
    188 C4    c    0.656300 *  0.843700 *  0.500000 *   0.00000    1.000000    
    189 C4    c    0.656300 *  0.500000 *  0.156300 *   0.00000    1.000000    
    190 C4    c    0.656300 *  0.656300 *  0.000000 *   0.00000    1.000000    
    191 C4    c    0.500000 *  0.656300 *  0.156300 *   0.00000    1.000000    
    192 C4    c    0.343700 *  0.656300 *  0.000000 *   0.00000    1.000000    
    193 C4    c    0.500000 *  0.343700 *  0.156300 *   0.00000    1.000000    
    194 C4    c    0.500000 *  0.343700 *  0.843700 *   0.00000    1.000000    
    195 C4    c    0.343700 *  0.500000 *  0.843700 *   0.00000    1.000000    
    196 C4    c    0.343700 *  0.343700 *  0.000000 *   0.00000    1.000000    
    197 C4    c    0.656300 *  0.500000 *  0.843700 *   0.00000    1.000000    
    198 C4    c    0.500000 *  0.656300 *  0.843700 *   0.00000    1.000000    
    199 C4    c    0.343700 *  0.500000 *  0.156300 *   0.00000    1.000000    
    200 C4    c    0.656300 *  0.343700 *  0.000000 *   0.00000    1.000000    
    201 C4    c    0.203300 *  0.000000 *  0.203300 *   0.00000    1.000000    
    202 C4    c    0.203300 *  0.203300 *  0.000000 *   0.00000    1.000000    
    203 C4    c    0.000000 *  0.203300 *  0.203300 *   0.00000    1.000000    
    204 C4    c    0.796700 *  0.203300 *  0.000000 *   0.00000    1.000000    
    205 C4    c    0.000000 *  0.796700 *  0.203300 *   0.00000    1.000000    
    206 C4    c    0.000000 *  0.796700 *  0.796700 *   0.00000    1.000000    
    207 C4    c    0.796700 *  0.000000 *  0.796700 *   0.00000    1.000000    
    208 C4    c    0.796700 *  0.796700 *  0.000000 *   0.00000    1.000000    
    209 C4    c    0.203300 *  0.000000 *  0.796700 *   0.00000    1.000000    
    210 C4    c    0.000000 *  0.203300 *  0.796700 *   0.00000    1.000000    
    211 C4    c    0.796700 *  0.000000 *  0.203300 *   0.00000    1.000000    
    212 C4    c    0.203300 *  0.796700 *  0.000000 *   0.00000    1.000000    
    213 C4    c    0.203300 *  0.500000 *  0.703300 *   0.00000    1.000000    
    214 C4    c    0.203300 *  0.703300 *  0.500000 *   0.00000    1.000000    
    215 C4    c    0.000000 *  0.703300 *  0.703300 *   0.00000    1.000000    
    216 C4    c    0.796700 *  0.703300 *  0.500000 *   0.00000    1.000000    
    217 C4    c    0.000000 *  0.296700 *  0.703300 *   0.00000    1.000000    
    218 C4    c    0.000000 *  0.296700 *  0.296700 *   0.00000    1.000000    
    219 C4    c    0.796700 *  0.500000 *  0.296700 *   0.00000    1.000000    
    220 C4    c    0.796700 *  0.296700 *  0.500000 *   0.00000    1.000000    
    221 C4    c    0.203300 *  0.500000 *  0.296700 *   0.00000    1.000000    
    222 C4    c    0.000000 *  0.703300 *  0.296700 *   0.00000    1.000000    
    223 C4    c    0.796700 *  0.500000 *  0.703300 *   0.00000    1.000000    
    224 C4    c    0.203300 *  0.296700 *  0.500000 *   0.00000    1.000000    
    225 C4    c    0.703300 *  0.000000 *  0.703300 *   0.00000    1.000000    
    226 C4    c    0.703300 *  0.203300 *  0.500000 *   0.00000    1.000000    
    227 C4    c    0.500000 *  0.203300 *  0.703300 *   0.00000    1.000000    
    228 C4    c    0.296700 *  0.203300 *  0.500000 *   0.00000    1.000000    
    229 C4    c    0.500000 *  0.796700 *  0.703300 *   0.00000    1.000000    
    230 C4    c    0.500000 *  0.796700 *  0.296700 *   0.00000    1.000000    
    231 C4    c    0.296700 *  0.000000 *  0.296700 *   0.00000    1.000000    
    232 C4    c    0.296700 *  0.796700 *  0.500000 *   0.00000    1.000000    
    233 C4    c    0.703300 *  0.000000 *  0.296700 *   0.00000    1.000000    
    234 C4    c    0.500000 *  0.203300 *  0.296700 *   0.00000    1.000000    
    235 C4    c    0.296700 *  0.000000 *  0.703300 *   0.00000    1.000000    
    236 C4    c    0.703300 *  0.796700 *  0.500000 *   0.00000    1.000000    
    237 C4    c    0.703300 *  0.500000 *  0.203300 *   0.00000    1.000000    
    238 C4    c    0.703300 *  0.703300 *  0.000000 *   0.00000    1.000000    
    239 C4    c    0.500000 *  0.703300 *  0.203300 *   0.00000    1.000000    
    240 C4    c    0.296700 *  0.703300 *  0.000000 *   0.00000    1.000000    
    241 C4    c    0.500000 *  0.296700 *  0.203300 *   0.00000    1.000000    
    242 C4    c    0.500000 *  0.296700 *  0.796700 *   0.00000    1.000000    
    243 C4    c    0.296700 *  0.500000 *  0.796700 *   0.00000    1.000000    
    244 C4    c    0.296700 *  0.296700 *  0.000000 *   0.00000    1.000000    
    245 C4    c    0.703300 *  0.500000 *  0.796700 *   0.00000    1.000000    
    246 C4    c    0.500000 *  0.703300 *  0.796700 *   0.00000    1.000000    
    247 C4    c    0.296700 *  0.500000 *  0.203300 *   0.00000    1.000000    
    248 C4    c    0.703300 *  0.296700 *  0.000000 *   0.00000    1.000000    
    249 C4    c    0.262600 *  0.000000 *  0.185100 *   0.00000    1.000000    
    250 C4    c    0.185100 *  0.262600 *  0.000000 *   0.00000    1.000000    
    251 C4    c    0.000000 *  0.185100 *  0.262600 *   0.00000    1.000000    
    252 C4    c    0.814900 *  0.262600 *  0.000000 *   0.00000    1.000000    
    253 C4    c    0.000000 *  0.814900 *  0.262600 *   0.00000    1.000000    
    254 C4    c    0.000000 *  0.814900 *  0.737400 *   0.00000    1.000000    
    255 C4    c    0.737400 *  0.000000 *  0.814900 *   0.00000    1.000000    
    256 C4    c    0.814900 *  0.737400 *  0.000000 *   0.00000    1.000000    
    257 C4    c    0.262600 *  0.000000 *  0.814900 *   0.00000    1.000000    
    258 C4    c    0.000000 *  0.262600 *  0.814900 *   0.00000    1.000000    
    259 C4    c    0.814900 *  0.000000 *  0.262600 *   0.00000    1.000000    
    260 C4    c    0.262600 *  0.814900 *  0.000000 *   0.00000    1.000000    
    261 C4    c    0.737400 *  0.000000 *  0.185100 *   0.00000    1.000000    
    262 C4    c    0.185100 *  0.737400 *  0.000000 *   0.00000    1.000000    
    263 C4    c    0.000000 *  0.185100 *  0.737400 *   0.00000    1.000000    
    264 C4    c    0.000000 *  0.737400 *  0.814900 *   0.00000    1.000000    
    265 C4    c    0.814900 *  0.000000 *  0.737400 *   0.00000    1.000000    
    266 C4    c    0.737400 *  0.814900 *  0.000000 *   0.00000    1.000000    
    267 C4    c    0.185100 *  0.000000 *  0.262600 *   0.00000    1.000000    
    268 C4    c    0.262600 *  0.185100 *  0.000000 *   0.00000    1.000000    
    269 C4    c    0.737400 *  0.185100 *  0.000000 *   0.00000    1.000000    
    270 C4    c    0.000000 *  0.737400 *  0.185100 *   0.00000    1.000000    
    271 C4    c    0.185100 *  0.000000 *  0.737400 *   0.00000    1.000000    
    272 C4    c    0.000000 *  0.262600 *  0.185100 *   0.00000    1.000000    
    273 C4    c    0.262600 *  0.500000 *  0.685100 *   0.00000    1.000000    
    274 C4    c    0.185100 *  0.762600 *  0.500000 *   0.00000    1.000000    
    275 C4    c    0.000000 *  0.685100 *  0.762600 *   0.00000    1.000000    
    276 C4    c    0.814900 *  0.762600 *  0.500000 *   0.00000    1.000000    
    277 C4    c    0.000000 *  0.314900 *  0.762600 *   0.00000    1.000000    
    278 C4    c    0.000000 *  0.314900 *  0.237400 *   0.00000    1.000000    
    279 C4    c    0.737400 *  0.500000 *  0.314900 *   0.00000    1.000000    
    280 C4    c    0.814900 *  0.237400 *  0.500000 *   0.00000    1.000000    
    281 C4    c    0.262600 *  0.500000 *  0.314900 *   0.00000    1.000000    
    282 C4    c    0.000000 *  0.762600 *  0.314900 *   0.00000    1.000000    
    283 C4    c    0.814900 *  0.500000 *  0.762600 *   0.00000    1.000000    
    284 C4    c    0.262600 *  0.314900 *  0.500000 *   0.00000    1.000000    
    285 C4    c    0.737400 *  0.500000 *  0.685100 *   0.00000    1.000000    
    286 C4    c    0.185100 *  0.237400 *  0.500000 *   0.00000    1.000000    
    287 C4    c    0.000000 *  0.685100 *  0.237400 *   0.00000    1.000000    
    288 C4    c    0.000000 *  0.237400 *  0.314900 *   0.00000    1.000000    
    289 C4    c    0.814900 *  0.500000 *  0.237400 *   0.00000    1.000000    
    290 C4    c    0.737400 *  0.314900 *  0.500000 *   0.00000    1.000000    
    291 C4    c    0.185100 *  0.500000 *  0.762600 *   0.00000    1.000000    
    292 C4    c    0.262600 *  0.685100 *  0.500000 *   0.00000    1.000000    
    293 C4    c    0.737400 *  0.685100 *  0.500000 *   0.00000    1.000000    
    294 C4    c    0.000000 *  0.237400 *  0.685100 *   0.00000    1.000000    
    295 C4    c    0.185100 *  0.500000 *  0.237400 *   0.00000    1.000000    
    296 C4    c    0.000000 *  0.762600 *  0.685100 *   0.00000    1.000000    
    297 C4    c    0.762600 *  0.000000 *  0.685100 *   0.00000    1.000000    
    298 C4    c    0.685100 *  0.262600 *  0.500000 *   0.00000    1.000000    
    299 C4    c    0.500000 *  0.185100 *  0.762600 *   0.00000    1.000000    
    300 C4    c    0.314900 *  0.262600 *  0.500000 *   0.00000    1.000000    
    301 C4    c    0.500000 *  0.814900 *  0.762600 *   0.00000    1.000000    
    302 C4    c    0.500000 *  0.814900 *  0.237400 *   0.00000    1.000000    
    303 C4    c    0.237400 *  0.000000 *  0.314900 *   0.00000    1.000000    
    304 C4    c    0.314900 *  0.737400 *  0.500000 *   0.00000    1.000000    
    305 C4    c    0.762600 *  0.000000 *  0.314900 *   0.00000    1.000000    
    306 C4    c    0.500000 *  0.262600 *  0.314900 *   0.00000    1.000000    
    307 C4    c    0.314900 *  0.000000 *  0.762600 *   0.00000    1.000000    
    308 C4    c    0.762600 *  0.814900 *  0.500000 *   0.00000    1.000000    
    309 C4    c    0.237400 *  0.000000 *  0.685100 *   0.00000    1.000000    
    310 C4    c    0.685100 *  0.737400 *  0.500000 *   0.00000    1.000000    
    311 C4    c    0.500000 *  0.185100 *  0.237400 *   0.00000    1.000000    
    312 C4    c    0.500000 *  0.737400 *  0.314900 *   0.00000    1.000000    
    313 C4    c    0.314900 *  0.000000 *  0.237400 *   0.00000    1.000000    
    314 C4    c    0.237400 *  0.814900 *  0.500000 *   0.00000    1.000000    
    315 C4    c    0.685100 *  0.000000 *  0.762600 *   0.00000    1.000000    
    316 C4    c    0.762600 *  0.185100 *  0.500000 *   0.00000    1.000000    
    317 C4    c    0.237400 *  0.185100 *  0.500000 *   0.00000    1.000000    
    318 C4    c    0.500000 *  0.737400 *  0.685100 *   0.00000    1.000000    
    319 C4    c    0.685100 *  0.000000 *  0.237400 *   0.00000    1.000000    
    320 C4    c    0.500000 *  0.262600 *  0.685100 *   0.00000    1.000000    
    321 C4    c    0.762600 *  0.500000 *  0.185100 *   0.00000    1.000000    
    322 C4    c    0.685100 *  0.762600 *  0.000000 *   0.00000    1.000000    
    323 C4    c    0.500000 *  0.685100 *  0.262600 *   0.00000    1.000000    
    324 C4    c    0.314900 *  0.762600 *  0.000000 *   0.00000    1.000000    
    325 C4    c    0.500000 *  0.314900 *  0.262600 *   0.00000    1.000000    
    326 C4    c    0.500000 *  0.314900 *  0.737400 *   0.00000    1.000000    
    327 C4    c    0.237400 *  0.500000 *  0.814900 *   0.00000    1.000000    
    328 C4    c    0.314900 *  0.237400 *  0.000000 *   0.00000    1.000000    
    329 C4    c    0.762600 *  0.500000 *  0.814900 *   0.00000    1.000000    
    330 C4    c    0.500000 *  0.762600 *  0.814900 *   0.00000    1.000000    
    331 C4    c    0.314900 *  0.500000 *  0.262600 *   0.00000    1.000000    
    332 C4    c    0.762600 *  0.314900 *  0.000000 *   0.00000    1.000000    
    333 C4    c    0.237400 *  0.500000 *  0.185100 *   0.00000    1.000000    
    334 C4    c    0.685100 *  0.237400 *  0.000000 *   0.00000    1.000000    
    335 C4    c    0.500000 *  0.685100 *  0.737400 *   0.00000    1.000000    
    336 C4    c    0.500000 *  0.237400 *  0.814900 *   0.00000    1.000000    
    337 C4    c    0.314900 *  0.500000 *  0.737400 *   0.00000    1.000000    
    338 C4    c    0.237400 *  0.314900 *  0.000000 *   0.00000    1.000000    
    339 C4    c    0.685100 *  0.500000 *  0.262600 *   0.00000    1.000000    
    340 C4    c    0.762600 *  0.685100 *  0.000000 *   0.00000    1.000000    
    341 C4    c    0.237400 *  0.685100 *  0.000000 *   0.00000    1.000000    
    342 C4    c    0.500000 *  0.237400 *  0.185100 *   0.00000    1.000000    
    343 C4    c    0.685100 *  0.500000 *  0.737400 *   0.00000    1.000000    
    344 C4    c    0.500000 *  0.762600 *  0.185100 *   0.00000    1.000000    
    345 H5    c    0.000000 *  0.275145 *  0.134668 *   0.00000    1.000000    
    346 H5    c    0.134668 *  0.000000 *  0.275145 *   0.00000    1.000000    
    347 H5    c    0.275145 *  0.134668 *  0.000000 *   0.00000    1.000000    
    348 H5    c    0.865332 *  0.000000 *  0.724855 *   0.00000    1.000000    
    349 H5    c    0.724855 *  0.865332 *  0.000000 *   0.00000    1.000000    
    350 H5    c    0.275145 *  0.865332 *  0.000000 *   0.00000    1.000000    
    351 H5    c    0.000000 *  0.275145 *  0.865332 *   0.00000    1.000000    
    352 H5    c    0.865332 *  0.000000 *  0.275145 *   0.00000    1.000000    
    353 H5    c    0.000000 *  0.724855 *  0.865332 *   0.00000    1.000000    
    354 H5    c    0.275145 *  0.000000 *  0.865332 *   0.00000    1.000000    
    355 H5    c    0.865332 *  0.275145 *  0.000000 *   0.00000    1.000000    
    356 H5    c    0.000000 *  0.865332 *  0.275145 *   0.00000    1.000000    
    357 H5    c    0.000000 *  0.724855 *  0.134668 *   0.00000    1.000000    
    358 H5    c    0.134668 *  0.000000 *  0.724855 *   0.00000    1.000000    
    359 H5    c    0.724855 *  0.134668 *  0.000000 *   0.00000    1.000000    
    360 H5    c    0.724855 *  0.000000 *  0.865332 *   0.00000    1.000000    
    361 H5    c    0.865332 *  0.724855 *  0.000000 *   0.00000    1.000000    
    362 H5    c    0.000000 *  0.865332 *  0.724855 *   0.00000    1.000000    
    363 H5    c    0.134668 *  0.724855 *  0.000000 *   0.00000    1.000000    
    364 H5    c    0.000000 *  0.134668 *  0.724855 *   0.00000    1.000000    
    365 H5    c    0.000000 *  0.134668 *  0.275145 *   0.00000    1.000000    
    366 H5    c    0.275145 *  0.000000 *  0.134668 *   0.00000    1.000000    
    367 H5    c    0.134668 *  0.275145 *  0.000000 *   0.00000    1.000000    
    368 H5    c    0.724855 *  0.000000 *  0.134668 *   0.00000    1.000000    
    369 H5    c    0.000000 *  0.775145 *  0.634668 *   0.00000    1.000000    
    370 H5    c    0.134668 *  0.500000 *  0.775145 *   0.00000    1.000000    
    371 H5    c    0.275145 *  0.634668 *  0.500000 *   0.00000    1.000000    
    372 H5    c    0.865332 *  0.500000 *  0.224855 *   0.00000    1.000000    
    373 H5    c    0.724855 *  0.365332 *  0.500000 *   0.00000    1.000000    
    374 H5    c    0.275145 *  0.365332 *  0.500000 *   0.00000    1.000000    
    375 H5    c    0.000000 *  0.775145 *  0.365332 *   0.00000    1.000000    
    376 H5    c    0.865332 *  0.500000 *  0.775145 *   0.00000    1.000000    
    377 H5    c    0.000000 *  0.224855 *  0.365332 *   0.00000    1.000000    
    378 H5    c    0.275145 *  0.500000 *  0.365332 *   0.00000    1.000000    
    379 H5    c    0.865332 *  0.775145 *  0.500000 *   0.00000    1.000000    
    380 H5    c    0.000000 *  0.365332 *  0.775145 *   0.00000    1.000000    
    381 H5    c    0.000000 *  0.224855 *  0.634668 *   0.00000    1.000000    
    382 H5    c    0.134668 *  0.500000 *  0.224855 *   0.00000    1.000000    
    383 H5    c    0.724855 *  0.634668 *  0.500000 *   0.00000    1.000000    
    384 H5    c    0.724855 *  0.500000 *  0.365332 *   0.00000    1.000000    
    385 H5    c    0.865332 *  0.224855 *  0.500000 *   0.00000    1.000000    
    386 H5    c    0.000000 *  0.365332 *  0.224855 *   0.00000    1.000000    
    387 H5    c    0.134668 *  0.224855 *  0.500000 *   0.00000    1.000000    
    388 H5    c    0.000000 *  0.634668 *  0.224855 *   0.00000    1.000000    
    389 H5    c    0.000000 *  0.634668 *  0.775145 *   0.00000    1.000000    
    390 H5    c    0.275145 *  0.500000 *  0.634668 *   0.00000    1.000000    
    391 H5    c    0.134668 *  0.775145 *  0.500000 *   0.00000    1.000000    
    392 H5    c    0.724855 *  0.500000 *  0.634668 *   0.00000    1.000000    
    393 H5    c    0.500000 *  0.275145 *  0.634668 *   0.00000    1.000000    
    394 H5    c    0.634668 *  0.000000 *  0.775145 *   0.00000    1.000000    
    395 H5    c    0.775145 *  0.134668 *  0.500000 *   0.00000    1.000000    
    396 H5    c    0.365332 *  0.000000 *  0.224855 *   0.00000    1.000000    
    397 H5    c    0.224855 *  0.865332 *  0.500000 *   0.00000    1.000000    
    398 H5    c    0.775145 *  0.865332 *  0.500000 *   0.00000    1.000000    
    399 H5    c    0.500000 *  0.275145 *  0.365332 *   0.00000    1.000000    
    400 H5    c    0.365332 *  0.000000 *  0.775145 *   0.00000    1.000000    
    401 H5    c    0.500000 *  0.724855 *  0.365332 *   0.00000    1.000000    
    402 H5    c    0.775145 *  0.000000 *  0.365332 *   0.00000    1.000000    
    403 H5    c    0.365332 *  0.275145 *  0.500000 *   0.00000    1.000000    
    404 H5    c    0.500000 *  0.865332 *  0.775145 *   0.00000    1.000000    
    405 H5    c    0.500000 *  0.724855 *  0.634668 *   0.00000    1.000000    
    406 H5    c    0.634668 *  0.000000 *  0.224855 *   0.00000    1.000000    
    407 H5    c    0.224855 *  0.134668 *  0.500000 *   0.00000    1.000000    
    408 H5    c    0.224855 *  0.000000 *  0.365332 *   0.00000    1.000000    
    409 H5    c    0.365332 *  0.724855 *  0.500000 *   0.00000    1.000000    
    410 H5    c    0.500000 *  0.865332 *  0.224855 *   0.00000    1.000000    
    411 H5    c    0.634668 *  0.724855 *  0.500000 *   0.00000    1.000000    
    412 H5    c    0.500000 *  0.134668 *  0.224855 *   0.00000    1.000000    
    413 H5    c    0.500000 *  0.134668 *  0.775145 *   0.00000    1.000000    
    414 H5    c    0.775145 *  0.000000 *  0.634668 *   0.00000    1.000000    
    415 H5    c    0.634668 *  0.275145 *  0.500000 *   0.00000    1.000000    
    416 H5    c    0.224855 *  0.000000 *  0.634668 *   0.00000    1.000000    
    417 H5    c    0.500000 *  0.775145 *  0.134668 *   0.00000    1.000000    
    418 H5    c    0.634668 *  0.500000 *  0.275145 *   0.00000    1.000000    
    419 H5    c    0.775145 *  0.634668 *  0.000000 *   0.00000    1.000000    
    420 H5    c    0.365332 *  0.500000 *  0.724855 *   0.00000    1.000000    
    421 H5    c    0.224855 *  0.365332 *  0.000000 *   0.00000    1.000000    
    422 H5    c    0.775145 *  0.365332 *  0.000000 *   0.00000    1.000000    
    423 H5    c    0.500000 *  0.775145 *  0.865332 *   0.00000    1.000000    
    424 H5    c    0.365332 *  0.500000 *  0.275145 *   0.00000    1.000000    
    425 H5    c    0.500000 *  0.224855 *  0.865332 *   0.00000    1.000000    
    426 H5    c    0.775145 *  0.500000 *  0.865332 *   0.00000    1.000000    
    427 H5    c    0.365332 *  0.775145 *  0.000000 *   0.00000    1.000000    
    428 H5    c    0.500000 *  0.365332 *  0.275145 *   0.00000    1.000000    
    429 H5    c    0.500000 *  0.224855 *  0.134668 *   0.00000    1.000000    
    430 H5    c    0.634668 *  0.500000 *  0.724855 *   0.00000    1.000000    
    431 H5    c    0.224855 *  0.634668 *  0.000000 *   0.00000    1.000000    
    432 H5    c    0.224855 *  0.500000 *  0.865332 *   0.00000    1.000000    
    433 H5    c    0.365332 *  0.224855 *  0.000000 *   0.00000    1.000000    
    434 H5    c    0.500000 *  0.365332 *  0.724855 *   0.00000    1.000000    
    435 H5    c    0.634668 *  0.224855 *  0.000000 *   0.00000    1.000000    
    436 H5    c    0.500000 *  0.634668 *  0.724855 *   0.00000    1.000000    
    437 H5    c    0.500000 *  0.634668 *  0.275145 *   0.00000    1.000000    
    438 H5    c    0.775145 *  0.500000 *  0.134668 *   0.00000    1.000000    
    439 H5    c    0.634668 *  0.775145 *  0.000000 *   0.00000    1.000000    
    440 H5    c    0.224855 *  0.500000 *  0.134668 *   0.00000    1.000000    
--------------------------------------------------------------------------------


  Initial Cartesian coordinates :

--------------------------------------------------------------------------------
   No.  Atomic        x           y           z          Charge   Occupancy
        Label       (Angs)      (Angs)      (Angs)        (e)       (Frac)  
--------------------------------------------------------------------------------
      1 Zr1   c     0.000000    0.000000    2.592133    0.000000    1.000000
      2 Zr1   c     2.592133    0.000000    0.000000    0.000000    1.000000
      3 Zr1   c     0.000000    2.592133    0.000000    0.000000    1.000000
      4 Zr1   c    18.362867    0.000000    0.000000    0.000000    1.000000
      5 Zr1   c     0.000000   18.362867    0.000000    0.000000    1.000000
      6 Zr1   c     0.000000    0.000000   18.362867    0.000000    1.000000
      7 Zr1   c     0.000000   10.477500   13.069633    0.000000    1.000000
      8 Zr1   c     2.592133   10.477500   10.477500    0.000000    1.000000
      9 Zr1   c     0.000000   13.069633   10.477500    0.000000    1.000000
     10 Zr1   c    18.362867   10.477500   10.477500    0.000000    1.000000
     11 Zr1   c     0.000000    7.885367   10.477500    0.000000    1.000000
     12 Zr1   c     0.000000   10.477500    7.885367    0.000000    1.000000
     13 Zr1   c    10.477500    0.000000   13.069633    0.000000    1.000000
     14 Zr1   c    13.069633    0.000000   10.477500    0.000000    1.000000
     15 Zr1   c    10.477500    2.592133   10.477500    0.000000    1.000000
     16 Zr1   c     7.885367    0.000000   10.477500    0.000000    1.000000
     17 Zr1   c    10.477500   18.362867   10.477500    0.000000    1.000000
     18 Zr1   c    10.477500    0.000000    7.885367    0.000000    1.000000
     19 Zr1   c    10.477500   10.477500    2.592133    0.000000    1.000000
     20 Zr1   c    13.069633   10.477500    0.000000    0.000000    1.000000
     21 Zr1   c    10.477500   13.069633    0.000000    0.000000    1.000000
     22 Zr1   c     7.885367   10.477500    0.000000    0.000000    1.000000
     23 Zr1   c    10.477500    7.885367    0.000000    0.000000    1.000000
     24 Zr1   c    10.477500   10.477500   18.362867    0.000000    1.000000
     25 O2    c     1.491996    1.491996    1.491996    0.000000    1.000000
     26 O2    c    19.463004    1.491996   19.463004    0.000000    1.000000
     27 O2    c    19.463004   19.463004    1.491996    0.000000    1.000000
     28 O2    c     1.491996   19.463004   19.463004    0.000000    1.000000
     29 O2    c     1.491996    1.491996   19.463004    0.000000    1.000000
     30 O2    c    19.463004    1.491996    1.491996    0.000000    1.000000
     31 O2    c     1.491996   19.463004    1.491996    0.000000    1.000000
     32 O2    c    19.463004   19.463004   19.463004    0.000000    1.000000
     33 O2    c     1.491996   11.969496   11.969496    0.000000    1.000000
     34 O2    c    19.463004   11.969496    8.985504    0.000000    1.000000
     35 O2    c    19.463004    8.985504   11.969496    0.000000    1.000000
     36 O2    c     1.491996    8.985504    8.985504    0.000000    1.000000
     37 O2    c     1.491996   11.969496    8.985504    0.000000    1.000000
     38 O2    c    19.463004   11.969496   11.969496    0.000000    1.000000
     39 O2    c     1.491996    8.985504   11.969496    0.000000    1.000000
     40 O2    c    19.463004    8.985504    8.985504    0.000000    1.000000
     41 O2    c    11.969496    1.491996   11.969496    0.000000    1.000000
     42 O2    c     8.985504    1.491996    8.985504    0.000000    1.000000
     43 O2    c     8.985504   19.463004   11.969496    0.000000    1.000000
     44 O2    c    11.969496   19.463004    8.985504    0.000000    1.000000
     45 O2    c    11.969496    1.491996    8.985504    0.000000    1.000000
     46 O2    c     8.985504    1.491996   11.969496    0.000000    1.000000
     47 O2    c    11.969496   19.463004   11.969496    0.000000    1.000000
     48 O2    c     8.985504   19.463004    8.985504    0.000000    1.000000
     49 O2    c    11.969496   11.969496    1.491996    0.000000    1.000000
     50 O2    c     8.985504   11.969496   19.463004    0.000000    1.000000
     51 O2    c     8.985504    8.985504    1.491996    0.000000    1.000000
     52 O2    c    11.969496    8.985504   19.463004    0.000000    1.000000
     53 O2    c    11.969496   11.969496   19.463004    0.000000    1.000000
     54 O2    c     8.985504   11.969496    1.491996    0.000000    1.000000
     55 O2    c    11.969496    8.985504    1.491996    0.000000    1.000000
     56 O2    c     8.985504    8.985504   19.463004    0.000000    1.000000
     57 O3    c     2.070354    0.000000    3.652457    0.000000    1.000000
     58 O3    c     3.652457    2.070354    0.000000    0.000000    1.000000
     59 O3    c     0.000000    3.652457    2.070354    0.000000    1.000000
     60 O3    c    17.302543    2.070354    0.000000    0.000000    1.000000
     61 O3    c     0.000000   17.302543    2.070354    0.000000    1.000000
     62 O3    c     0.000000   17.302543   18.884646    0.000000    1.000000
     63 O3    c    18.884646    0.000000   17.302543    0.000000    1.000000
     64 O3    c    17.302543   18.884646    0.000000    0.000000    1.000000
     65 O3    c     2.070354    0.000000   17.302543    0.000000    1.000000
     66 O3    c     0.000000    2.070354   17.302543    0.000000    1.000000
     67 O3    c    17.302543    0.000000    2.070354    0.000000    1.000000
     68 O3    c     2.070354   17.302543    0.000000    0.000000    1.000000
     69 O3    c    18.884646    0.000000    3.652457    0.000000    1.000000
     70 O3    c     3.652457   18.884646    0.000000    0.000000    1.000000
     71 O3    c     0.000000    3.652457   18.884646    0.000000    1.000000
     72 O3    c     0.000000   18.884646   17.302543    0.000000    1.000000
     73 O3    c    17.302543    0.000000   18.884646    0.000000    1.000000
     74 O3    c    18.884646   17.302543    0.000000    0.000000    1.000000
     75 O3    c     3.652457    0.000000    2.070354    0.000000    1.000000
     76 O3    c     2.070354    3.652457    0.000000    0.000000    1.000000
     77 O3    c    18.884646    3.652457    0.000000    0.000000    1.000000
     78 O3    c     0.000000   18.884646    3.652457    0.000000    1.000000
     79 O3    c     3.652457    0.000000   18.884646    0.000000    1.000000
     80 O3    c     0.000000    2.070354    3.652457    0.000000    1.000000
     81 O3    c     2.070354   10.477500   14.129957    0.000000    1.000000
     82 O3    c     3.652457   12.547854   10.477500    0.000000    1.000000
     83 O3    c     0.000000   14.129957   12.547854    0.000000    1.000000
     84 O3    c    17.302543   12.547854   10.477500    0.000000    1.000000
     85 O3    c     0.000000    6.825043   12.547854    0.000000    1.000000
     86 O3    c     0.000000    6.825043    8.407146    0.000000    1.000000
     87 O3    c    18.884646   10.477500    6.825043    0.000000    1.000000
     88 O3    c    17.302543    8.407146   10.477500    0.000000    1.000000
     89 O3    c     2.070354   10.477500    6.825043    0.000000    1.000000
     90 O3    c     0.000000   12.547854    6.825043    0.000000    1.000000
     91 O3    c    17.302543   10.477500   12.547854    0.000000    1.000000
     92 O3    c     2.070354    6.825043   10.477500    0.000000    1.000000
     93 O3    c    18.884646   10.477500   14.129957    0.000000    1.000000
     94 O3    c     3.652457    8.407146   10.477500    0.000000    1.000000
     95 O3    c     0.000000   14.129957    8.407146    0.000000    1.000000
     96 O3    c     0.000000    8.407146    6.825043    0.000000    1.000000
     97 O3    c    17.302543   10.477500    8.407146    0.000000    1.000000
     98 O3    c    18.884646    6.825043   10.477500    0.000000    1.000000
     99 O3    c     3.652457   10.477500   12.547854    0.000000    1.000000
    100 O3    c     2.070354   14.129957   10.477500    0.000000    1.000000
    101 O3    c    18.884646   14.129957   10.477500    0.000000    1.000000
    102 O3    c     0.000000    8.407146   14.129957    0.000000    1.000000
    103 O3    c     3.652457   10.477500    8.407146    0.000000    1.000000
    104 O3    c     0.000000   12.547854   14.129957    0.000000    1.000000
    105 O3    c    12.547854    0.000000   14.129957    0.000000    1.000000
    106 O3    c    14.129957    2.070354   10.477500    0.000000    1.000000
    107 O3    c    10.477500    3.652457   12.547854    0.000000    1.000000
    108 O3    c     6.825043    2.070354   10.477500    0.000000    1.000000
    109 O3    c    10.477500   17.302543   12.547854    0.000000    1.000000
    110 O3    c    10.477500   17.302543    8.407146    0.000000    1.000000
    111 O3    c     8.407146    0.000000    6.825043    0.000000    1.000000
    112 O3    c     6.825043   18.884646   10.477500    0.000000    1.000000
    113 O3    c    12.547854    0.000000    6.825043    0.000000    1.000000
    114 O3    c    10.477500    2.070354    6.825043    0.000000    1.000000
    115 O3    c     6.825043    0.000000   12.547854    0.000000    1.000000
    116 O3    c    12.547854   17.302543   10.477500    0.000000    1.000000
    117 O3    c     8.407146    0.000000   14.129957    0.000000    1.000000
    118 O3    c    14.129957   18.884646   10.477500    0.000000    1.000000
    119 O3    c    10.477500    3.652457    8.407146    0.000000    1.000000
    120 O3    c    10.477500   18.884646    6.825043    0.000000    1.000000
    121 O3    c     6.825043    0.000000    8.407146    0.000000    1.000000
    122 O3    c     8.407146   17.302543   10.477500    0.000000    1.000000
    123 O3    c    14.129957    0.000000   12.547854    0.000000    1.000000
    124 O3    c    12.547854    3.652457   10.477500    0.000000    1.000000
    125 O3    c     8.407146    3.652457   10.477500    0.000000    1.000000
    126 O3    c    10.477500   18.884646   14.129957    0.000000    1.000000
    127 O3    c    14.129957    0.000000    8.407146    0.000000    1.000000
    128 O3    c    10.477500    2.070354   14.129957    0.000000    1.000000
    129 O3    c    12.547854   10.477500    3.652457    0.000000    1.000000
    130 O3    c    14.129957   12.547854    0.000000    0.000000    1.000000
    131 O3    c    10.477500   14.129957    2.070354    0.000000    1.000000
    132 O3    c     6.825043   12.547854    0.000000    0.000000    1.000000
    133 O3    c    10.477500    6.825043    2.070354    0.000000    1.000000
    134 O3    c    10.477500    6.825043   18.884646    0.000000    1.000000
    135 O3    c     8.407146   10.477500   17.302543    0.000000    1.000000
    136 O3    c     6.825043    8.407146    0.000000    0.000000    1.000000
    137 O3    c    12.547854   10.477500   17.302543    0.000000    1.000000
    138 O3    c    10.477500   12.547854   17.302543    0.000000    1.000000
    139 O3    c     6.825043   10.477500    2.070354    0.000000    1.000000
    140 O3    c    12.547854    6.825043    0.000000    0.000000    1.000000
    141 O3    c     8.407146   10.477500    3.652457    0.000000    1.000000
    142 O3    c    14.129957    8.407146    0.000000    0.000000    1.000000
    143 O3    c    10.477500   14.129957   18.884646    0.000000    1.000000
    144 O3    c    10.477500    8.407146   17.302543    0.000000    1.000000
    145 O3    c     6.825043   10.477500   18.884646    0.000000    1.000000
    146 O3    c     8.407146    6.825043    0.000000    0.000000    1.000000
    147 O3    c    14.129957   10.477500    2.070354    0.000000    1.000000
    148 O3    c    12.547854   14.129957    0.000000    0.000000    1.000000
    149 O3    c     8.407146   14.129957    0.000000    0.000000    1.000000
    150 O3    c    10.477500    8.407146    3.652457    0.000000    1.000000
    151 O3    c    14.129957   10.477500   18.884646    0.000000    1.000000
    152 O3    c    10.477500   12.547854    3.652457    0.000000    1.000000
    153 C4    c     3.275266    0.000000    3.275266    0.000000    1.000000
    154 C4    c     3.275266    3.275266    0.000000    0.000000    1.000000
    155 C4    c     0.000000    3.275266    3.275266    0.000000    1.000000
    156 C4    c    17.679734    3.275266    0.000000    0.000000    1.000000
    157 C4    c     0.000000   17.679734    3.275266    0.000000    1.000000
    158 C4    c     0.000000   17.679734   17.679734    0.000000    1.000000
    159 C4    c    17.679734    0.000000   17.679734    0.000000    1.000000
    160 C4    c    17.679734   17.679734    0.000000    0.000000    1.000000
    161 C4    c     3.275266    0.000000   17.679734    0.000000    1.000000
    162 C4    c     0.000000    3.275266   17.679734    0.000000    1.000000
    163 C4    c    17.679734    0.000000    3.275266    0.000000    1.000000
    164 C4    c     3.275266   17.679734    0.000000    0.000000    1.000000
    165 C4    c     3.275266   10.477500   13.752766    0.000000    1.000000
    166 C4    c     3.275266   13.752766   10.477500    0.000000    1.000000
    167 C4    c     0.000000   13.752766   13.752766    0.000000    1.000000
    168 C4    c    17.679734   13.752766   10.477500    0.000000    1.000000
    169 C4    c     0.000000    7.202234   13.752766    0.000000    1.000000
    170 C4    c     0.000000    7.202234    7.202234    0.000000    1.000000
    171 C4    c    17.679734   10.477500    7.202234    0.000000    1.000000
    172 C4    c    17.679734    7.202234   10.477500    0.000000    1.000000
    173 C4    c     3.275266   10.477500    7.202234    0.000000    1.000000
    174 C4    c     0.000000   13.752766    7.202234    0.000000    1.000000
    175 C4    c    17.679734   10.477500   13.752766    0.000000    1.000000
    176 C4    c     3.275266    7.202234   10.477500    0.000000    1.000000
    177 C4    c    13.752766    0.000000   13.752766    0.000000    1.000000
    178 C4    c    13.752766    3.275266   10.477500    0.000000    1.000000
    179 C4    c    10.477500    3.275266   13.752766    0.000000    1.000000
    180 C4    c     7.202234    3.275266   10.477500    0.000000    1.000000
    181 C4    c    10.477500   17.679734   13.752766    0.000000    1.000000
    182 C4    c    10.477500   17.679734    7.202234    0.000000    1.000000
    183 C4    c     7.202234    0.000000    7.202234    0.000000    1.000000
    184 C4    c     7.202234   17.679734   10.477500    0.000000    1.000000
    185 C4    c    13.752766    0.000000    7.202234    0.000000    1.000000
    186 C4    c    10.477500    3.275266    7.202234    0.000000    1.000000
    187 C4    c     7.202234    0.000000   13.752766    0.000000    1.000000
    188 C4    c    13.752766   17.679734   10.477500    0.000000    1.000000
    189 C4    c    13.752766   10.477500    3.275266    0.000000    1.000000
    190 C4    c    13.752766   13.752766    0.000000    0.000000    1.000000
    191 C4    c    10.477500   13.752766    3.275266    0.000000    1.000000
    192 C4    c     7.202234   13.752766    0.000000    0.000000    1.000000
    193 C4    c    10.477500    7.202234    3.275266    0.000000    1.000000
    194 C4    c    10.477500    7.202234   17.679734    0.000000    1.000000
    195 C4    c     7.202234   10.477500   17.679734    0.000000    1.000000
    196 C4    c     7.202234    7.202234    0.000000    0.000000    1.000000
    197 C4    c    13.752766   10.477500   17.679734    0.000000    1.000000
    198 C4    c    10.477500   13.752766   17.679734    0.000000    1.000000
    199 C4    c     7.202234   10.477500    3.275266    0.000000    1.000000
    200 C4    c    13.752766    7.202234    0.000000    0.000000    1.000000
    201 C4    c     4.260152    0.000000    4.260152    0.000000    1.000000
    202 C4    c     4.260152    4.260152    0.000000    0.000000    1.000000
    203 C4    c     0.000000    4.260152    4.260152    0.000000    1.000000
    204 C4    c    16.694848    4.260152    0.000000    0.000000    1.000000
    205 C4    c     0.000000   16.694848    4.260152    0.000000    1.000000
    206 C4    c     0.000000   16.694848   16.694848    0.000000    1.000000
    207 C4    c    16.694848    0.000000   16.694848    0.000000    1.000000
    208 C4    c    16.694848   16.694848    0.000000    0.000000    1.000000
    209 C4    c     4.260152    0.000000   16.694848    0.000000    1.000000
    210 C4    c     0.000000    4.260152   16.694848    0.000000    1.000000
    211 C4    c    16.694848    0.000000    4.260152    0.000000    1.000000
    212 C4    c     4.260152   16.694848    0.000000    0.000000    1.000000
    213 C4    c     4.260152   10.477500   14.737652    0.000000    1.000000
    214 C4    c     4.260152   14.737652   10.477500    0.000000    1.000000
    215 C4    c     0.000000   14.737652   14.737652    0.000000    1.000000
    216 C4    c    16.694848   14.737652   10.477500    0.000000    1.000000
    217 C4    c     0.000000    6.217348   14.737652    0.000000    1.000000
    218 C4    c     0.000000    6.217348    6.217348    0.000000    1.000000
    219 C4    c    16.694848   10.477500    6.217348    0.000000    1.000000
    220 C4    c    16.694848    6.217348   10.477500    0.000000    1.000000
    221 C4    c     4.260152   10.477500    6.217348    0.000000    1.000000
    222 C4    c     0.000000   14.737652    6.217348    0.000000    1.000000
    223 C4    c    16.694848   10.477500   14.737652    0.000000    1.000000
    224 C4    c     4.260152    6.217348   10.477500    0.000000    1.000000
    225 C4    c    14.737652    0.000000   14.737652    0.000000    1.000000
    226 C4    c    14.737652    4.260152   10.477500    0.000000    1.000000
    227 C4    c    10.477500    4.260152   14.737652    0.000000    1.000000
    228 C4    c     6.217348    4.260152   10.477500    0.000000    1.000000
    229 C4    c    10.477500   16.694848   14.737652    0.000000    1.000000
    230 C4    c    10.477500   16.694848    6.217348    0.000000    1.000000
    231 C4    c     6.217348    0.000000    6.217348    0.000000    1.000000
    232 C4    c     6.217348   16.694848   10.477500    0.000000    1.000000
    233 C4    c    14.737652    0.000000    6.217348    0.000000    1.000000
    234 C4    c    10.477500    4.260152    6.217348    0.000000    1.000000
    235 C4    c     6.217348    0.000000   14.737652    0.000000    1.000000
    236 C4    c    14.737652   16.694848   10.477500    0.000000    1.000000
    237 C4    c    14.737652   10.477500    4.260152    0.000000    1.000000
    238 C4    c    14.737652   14.737652    0.000000    0.000000    1.000000
    239 C4    c    10.477500   14.737652    4.260152    0.000000    1.000000
    240 C4    c     6.217348   14.737652    0.000000    0.000000    1.000000
    241 C4    c    10.477500    6.217348    4.260152    0.000000    1.000000
    242 C4    c    10.477500    6.217348   16.694848    0.000000    1.000000
    243 C4    c     6.217348   10.477500   16.694848    0.000000    1.000000
    244 C4    c     6.217348    6.217348    0.000000    0.000000    1.000000
    245 C4    c    14.737652   10.477500   16.694848    0.000000    1.000000
    246 C4    c    10.477500   14.737652   16.694848    0.000000    1.000000
    247 C4    c     6.217348   10.477500    4.260152    0.000000    1.000000
    248 C4    c    14.737652    6.217348    0.000000    0.000000    1.000000
    249 C4    c     5.502783    0.000000    3.878771    0.000000    1.000000
    250 C4    c     3.878771    5.502783    0.000000    0.000000    1.000000
    251 C4    c     0.000000    3.878771    5.502783    0.000000    1.000000
    252 C4    c    17.076229    5.502783    0.000000    0.000000    1.000000
    253 C4    c     0.000000   17.076229    5.502783    0.000000    1.000000
    254 C4    c     0.000000   17.076229   15.452217    0.000000    1.000000
    255 C4    c    15.452217    0.000000   17.076229    0.000000    1.000000
    256 C4    c    17.076229   15.452217    0.000000    0.000000    1.000000
    257 C4    c     5.502783    0.000000   17.076229    0.000000    1.000000
    258 C4    c     0.000000    5.502783   17.076229    0.000000    1.000000
    259 C4    c    17.076229    0.000000    5.502783    0.000000    1.000000
    260 C4    c     5.502783   17.076229    0.000000    0.000000    1.000000
    261 C4    c    15.452217    0.000000    3.878771    0.000000    1.000000
    262 C4    c     3.878771   15.452217    0.000000    0.000000    1.000000
    263 C4    c     0.000000    3.878771   15.452217    0.000000    1.000000
    264 C4    c     0.000000   15.452217   17.076229    0.000000    1.000000
    265 C4    c    17.076229    0.000000   15.452217    0.000000    1.000000
    266 C4    c    15.452217   17.076229    0.000000    0.000000    1.000000
    267 C4    c     3.878771    0.000000    5.502783    0.000000    1.000000
    268 C4    c     5.502783    3.878771    0.000000    0.000000    1.000000
    269 C4    c    15.452217    3.878771    0.000000    0.000000    1.000000
    270 C4    c     0.000000   15.452217    3.878771    0.000000    1.000000
    271 C4    c     3.878771    0.000000   15.452217    0.000000    1.000000
    272 C4    c     0.000000    5.502783    3.878771    0.000000    1.000000
    273 C4    c     5.502783   10.477500   14.356271    0.000000    1.000000
    274 C4    c     3.878771   15.980283   10.477500    0.000000    1.000000
    275 C4    c     0.000000   14.356271   15.980283    0.000000    1.000000
    276 C4    c    17.076229   15.980283   10.477500    0.000000    1.000000
    277 C4    c     0.000000    6.598729   15.980283    0.000000    1.000000
    278 C4    c     0.000000    6.598729    4.974717    0.000000    1.000000
    279 C4    c    15.452217   10.477500    6.598729    0.000000    1.000000
    280 C4    c    17.076229    4.974717   10.477500    0.000000    1.000000
    281 C4    c     5.502783   10.477500    6.598729    0.000000    1.000000
    282 C4    c     0.000000   15.980283    6.598729    0.000000    1.000000
    283 C4    c    17.076229   10.477500   15.980283    0.000000    1.000000
    284 C4    c     5.502783    6.598729   10.477500    0.000000    1.000000
    285 C4    c    15.452217   10.477500   14.356271    0.000000    1.000000
    286 C4    c     3.878771    4.974717   10.477500    0.000000    1.000000
    287 C4    c     0.000000   14.356271    4.974717    0.000000    1.000000
    288 C4    c     0.000000    4.974717    6.598729    0.000000    1.000000
    289 C4    c    17.076229   10.477500    4.974717    0.000000    1.000000
    290 C4    c    15.452217    6.598729   10.477500    0.000000    1.000000
    291 C4    c     3.878771   10.477500   15.980283    0.000000    1.000000
    292 C4    c     5.502783   14.356271   10.477500    0.000000    1.000000
    293 C4    c    15.452217   14.356271   10.477500    0.000000    1.000000
    294 C4    c     0.000000    4.974717   14.356271    0.000000    1.000000
    295 C4    c     3.878771   10.477500    4.974717    0.000000    1.000000
    296 C4    c     0.000000   15.980283   14.356271    0.000000    1.000000
    297 C4    c    15.980283    0.000000   14.356271    0.000000    1.000000
    298 C4    c    14.356271    5.502783   10.477500    0.000000    1.000000
    299 C4    c    10.477500    3.878771   15.980283    0.000000    1.000000
    300 C4    c     6.598729    5.502783   10.477500    0.000000    1.000000
    301 C4    c    10.477500   17.076229   15.980283    0.000000    1.000000
    302 C4    c    10.477500   17.076229    4.974717    0.000000    1.000000
    303 C4    c     4.974717    0.000000    6.598729    0.000000    1.000000
    304 C4    c     6.598729   15.452217   10.477500    0.000000    1.000000
    305 C4    c    15.980283    0.000000    6.598729    0.000000    1.000000
    306 C4    c    10.477500    5.502783    6.598729    0.000000    1.000000
    307 C4    c     6.598729    0.000000   15.980283    0.000000    1.000000
    308 C4    c    15.980283   17.076229   10.477500    0.000000    1.000000
    309 C4    c     4.974717    0.000000   14.356271    0.000000    1.000000
    310 C4    c    14.356271   15.452217   10.477500    0.000000    1.000000
    311 C4    c    10.477500    3.878771    4.974717    0.000000    1.000000
    312 C4    c    10.477500   15.452217    6.598729    0.000000    1.000000
    313 C4    c     6.598729    0.000000    4.974717    0.000000    1.000000
    314 C4    c     4.974717   17.076229   10.477500    0.000000    1.000000
    315 C4    c    14.356271    0.000000   15.980283    0.000000    1.000000
    316 C4    c    15.980283    3.878771   10.477500    0.000000    1.000000
    317 C4    c     4.974717    3.878771   10.477500    0.000000    1.000000
    318 C4    c    10.477500   15.452217   14.356271    0.000000    1.000000
    319 C4    c    14.356271    0.000000    4.974717    0.000000    1.000000
    320 C4    c    10.477500    5.502783   14.356271    0.000000    1.000000
    321 C4    c    15.980283   10.477500    3.878771    0.000000    1.000000
    322 C4    c    14.356271   15.980283    0.000000    0.000000    1.000000
    323 C4    c    10.477500   14.356271    5.502783    0.000000    1.000000
    324 C4    c     6.598729   15.980283    0.000000    0.000000    1.000000
    325 C4    c    10.477500    6.598729    5.502783    0.000000    1.000000
    326 C4    c    10.477500    6.598729   15.452217    0.000000    1.000000
    327 C4    c     4.974717   10.477500   17.076229    0.000000    1.000000
    328 C4    c     6.598729    4.974717    0.000000    0.000000    1.000000
    329 C4    c    15.980283   10.477500   17.076229    0.000000    1.000000
    330 C4    c    10.477500   15.980283   17.076229    0.000000    1.000000
    331 C4    c     6.598729   10.477500    5.502783    0.000000    1.000000
    332 C4    c    15.980283    6.598729    0.000000    0.000000    1.000000
    333 C4    c     4.974717   10.477500    3.878771    0.000000    1.000000
    334 C4    c    14.356271    4.974717    0.000000    0.000000    1.000000
    335 C4    c    10.477500   14.356271   15.452217    0.000000    1.000000
    336 C4    c    10.477500    4.974717   17.076229    0.000000    1.000000
    337 C4    c     6.598729   10.477500   15.452217    0.000000    1.000000
    338 C4    c     4.974717    6.598729    0.000000    0.000000    1.000000
    339 C4    c    14.356271   10.477500    5.502783    0.000000    1.000000
    340 C4    c    15.980283   14.356271    0.000000    0.000000    1.000000
    341 C4    c     4.974717   14.356271    0.000000    0.000000    1.000000
    342 C4    c    10.477500    4.974717    3.878771    0.000000    1.000000
    343 C4    c    14.356271   10.477500   15.452217    0.000000    1.000000
    344 C4    c    10.477500   15.980283    3.878771    0.000000    1.000000
    345 H5    c     0.000000    5.765663    2.821968    0.000000    1.000000
    346 H5    c     2.821968    0.000000    5.765663    0.000000    1.000000
    347 H5    c     5.765663    2.821968    0.000000    0.000000    1.000000
    348 H5    c    18.133032    0.000000   15.189337    0.000000    1.000000
    349 H5    c    15.189337   18.133032    0.000000    0.000000    1.000000
    350 H5    c     5.765663   18.133032    0.000000    0.000000    1.000000
    351 H5    c     0.000000    5.765663   18.133032    0.000000    1.000000
    352 H5    c    18.133032    0.000000    5.765663    0.000000    1.000000
    353 H5    c     0.000000   15.189337   18.133032    0.000000    1.000000
    354 H5    c     5.765663    0.000000   18.133032    0.000000    1.000000
    355 H5    c    18.133032    5.765663    0.000000    0.000000    1.000000
    356 H5    c     0.000000   18.133032    5.765663    0.000000    1.000000
    357 H5    c     0.000000   15.189337    2.821968    0.000000    1.000000
    358 H5    c     2.821968    0.000000   15.189337    0.000000    1.000000
    359 H5    c    15.189337    2.821968    0.000000    0.000000    1.000000
    360 H5    c    15.189337    0.000000   18.133032    0.000000    1.000000
    361 H5    c    18.133032   15.189337    0.000000    0.000000    1.000000
    362 H5    c     0.000000   18.133032   15.189337    0.000000    1.000000
    363 H5    c     2.821968   15.189337    0.000000    0.000000    1.000000
    364 H5    c     0.000000    2.821968   15.189337    0.000000    1.000000
    365 H5    c     0.000000    2.821968    5.765663    0.000000    1.000000
    366 H5    c     5.765663    0.000000    2.821968    0.000000    1.000000
    367 H5    c     2.821968    5.765663    0.000000    0.000000    1.000000
    368 H5    c    15.189337    0.000000    2.821968    0.000000    1.000000
    369 H5    c     0.000000   16.243163   13.299468    0.000000    1.000000
    370 H5    c     2.821968   10.477500   16.243163    0.000000    1.000000
    371 H5    c     5.765663   13.299468   10.477500    0.000000    1.000000
    372 H5    c    18.133032   10.477500    4.711837    0.000000    1.000000
    373 H5    c    15.189337    7.655532   10.477500    0.000000    1.000000
    374 H5    c     5.765663    7.655532   10.477500    0.000000    1.000000
    375 H5    c     0.000000   16.243163    7.655532    0.000000    1.000000
    376 H5    c    18.133032   10.477500   16.243163    0.000000    1.000000
    377 H5    c     0.000000    4.711837    7.655532    0.000000    1.000000
    378 H5    c     5.765663   10.477500    7.655532    0.000000    1.000000
    379 H5    c    18.133032   16.243163   10.477500    0.000000    1.000000
    380 H5    c     0.000000    7.655532   16.243163    0.000000    1.000000
    381 H5    c     0.000000    4.711837   13.299468    0.000000    1.000000
    382 H5    c     2.821968   10.477500    4.711837    0.000000    1.000000
    383 H5    c    15.189337   13.299468   10.477500    0.000000    1.000000
    384 H5    c    15.189337   10.477500    7.655532    0.000000    1.000000
    385 H5    c    18.133032    4.711837   10.477500    0.000000    1.000000
    386 H5    c     0.000000    7.655532    4.711837    0.000000    1.000000
    387 H5    c     2.821968    4.711837   10.477500    0.000000    1.000000
    388 H5    c     0.000000   13.299468    4.711837    0.000000    1.000000
    389 H5    c     0.000000   13.299468   16.243163    0.000000    1.000000
    390 H5    c     5.765663   10.477500   13.299468    0.000000    1.000000
    391 H5    c     2.821968   16.243163   10.477500    0.000000    1.000000
    392 H5    c    15.189337   10.477500   13.299468    0.000000    1.000000
    393 H5    c    10.477500    5.765663   13.299468    0.000000    1.000000
    394 H5    c    13.299468    0.000000   16.243163    0.000000    1.000000
    395 H5    c    16.243163    2.821968   10.477500    0.000000    1.000000
    396 H5    c     7.655532    0.000000    4.711837    0.000000    1.000000
    397 H5    c     4.711837   18.133032   10.477500    0.000000    1.000000
    398 H5    c    16.243163   18.133032   10.477500    0.000000    1.000000
    399 H5    c    10.477500    5.765663    7.655532    0.000000    1.000000
    400 H5    c     7.655532    0.000000   16.243163    0.000000    1.000000
    401 H5    c    10.477500   15.189337    7.655532    0.000000    1.000000
    402 H5    c    16.243163    0.000000    7.655532    0.000000    1.000000
    403 H5    c     7.655532    5.765663   10.477500    0.000000    1.000000
    404 H5    c    10.477500   18.133032   16.243163    0.000000    1.000000
    405 H5    c    10.477500   15.189337   13.299468    0.000000    1.000000
    406 H5    c    13.299468    0.000000    4.711837    0.000000    1.000000
    407 H5    c     4.711837    2.821968   10.477500    0.000000    1.000000
    408 H5    c     4.711837    0.000000    7.655532    0.000000    1.000000
    409 H5    c     7.655532   15.189337   10.477500    0.000000    1.000000
    410 H5    c    10.477500   18.133032    4.711837    0.000000    1.000000
    411 H5    c    13.299468   15.189337   10.477500    0.000000    1.000000
    412 H5    c    10.477500    2.821968    4.711837    0.000000    1.000000
    413 H5    c    10.477500    2.821968   16.243163    0.000000    1.000000
    414 H5    c    16.243163    0.000000   13.299468    0.000000    1.000000
    415 H5    c    13.299468    5.765663   10.477500    0.000000    1.000000
    416 H5    c     4.711837    0.000000   13.299468    0.000000    1.000000
    417 H5    c    10.477500   16.243163    2.821968    0.000000    1.000000
    418 H5    c    13.299468   10.477500    5.765663    0.000000    1.000000
    419 H5    c    16.243163   13.299468    0.000000    0.000000    1.000000
    420 H5    c     7.655532   10.477500   15.189337    0.000000    1.000000
    421 H5    c     4.711837    7.655532    0.000000    0.000000    1.000000
    422 H5    c    16.243163    7.655532    0.000000    0.000000    1.000000
    423 H5    c    10.477500   16.243163   18.133032    0.000000    1.000000
    424 H5    c     7.655532   10.477500    5.765663    0.000000    1.000000
    425 H5    c    10.477500    4.711837   18.133032    0.000000    1.000000
    426 H5    c    16.243163   10.477500   18.133032    0.000000    1.000000
    427 H5    c     7.655532   16.243163    0.000000    0.000000    1.000000
    428 H5    c    10.477500    7.655532    5.765663    0.000000    1.000000
    429 H5    c    10.477500    4.711837    2.821968    0.000000    1.000000
    430 H5    c    13.299468   10.477500   15.189337    0.000000    1.000000
    431 H5    c     4.711837   13.299468    0.000000    0.000000    1.000000
    432 H5    c     4.711837   10.477500   18.133032    0.000000    1.000000
    433 H5    c     7.655532    4.711837    0.000000    0.000000    1.000000
    434 H5    c    10.477500    7.655532   15.189337    0.000000    1.000000
    435 H5    c    13.299468    4.711837    0.000000    0.000000    1.000000
    436 H5    c    10.477500   13.299468   15.189337    0.000000    1.000000
    437 H5    c    10.477500   13.299468    5.765663    0.000000    1.000000
    438 H5    c    16.243163   10.477500    2.821968    0.000000    1.000000
    439 H5    c    13.299468   16.243163    0.000000    0.000000    1.000000
    440 H5    c     4.711837   10.477500    2.821968    0.000000    1.000000
--------------------------------------------------------------------------------



  Molecule list generated from bond lengths :

  Total number of molecules =     1

--------------------------------------------------------------------------------
Molecule No./:  Atoms
Periodicity  :  
--------------------------------------------------------------------------------
     1  3    : Zr1  c     1 Zr1  c     2 Zr1  c     3 Zr1  c     4 Zr1  c     5
             : Zr1  c     6 Zr1  c     7 Zr1  c     8 Zr1  c     9 Zr1  c    10
             : Zr1  c    11 Zr1  c    12 Zr1  c    13 Zr1  c    14 Zr1  c    15
             : Zr1  c    16 Zr1  c    17 Zr1  c    18 Zr1  c    19 Zr1  c    20
             : Zr1  c    21 Zr1  c    22 Zr1  c    23 Zr1  c    24 O2   c    25
             : O2   c    26 O2   c    27 O2   c    28 O2   c    29 O2   c    30
             : O2   c    31 O2   c    32 O2   c    33 O2   c    34 O2   c    35
             : O2   c    36 O2   c    37 O2   c    38 O2   c    39 O2   c    40
             : O2   c    41 O2   c    42 O2   c    43 O2   c    44 O2   c    45
             : O2   c    46 O2   c    47 O2   c    48 O2   c    49 O2   c    50
             : O2   c    51 O2   c    52 O2   c    53 O2   c    54 O2   c    55
             : O2   c    56 O3   c    57 O3   c    58 O3   c    59 O3   c    60
             : O3   c    61 O3   c    62 O3   c    63 O3   c    64 O3   c    65
             : O3   c    66 O3   c    67 O3   c    68 O3   c    69 O3   c    70
             : O3   c    71 O3   c    72 O3   c    73 O3   c    74 O3   c    75
             : O3   c    76 O3   c    77 O3   c    78 O3   c    79 O3   c    80
             : O3   c    81 O3   c    82 O3   c    83 O3   c    84 O3   c    85
             : O3   c    86 O3   c    87 O3   c    88 O3   c    89 O3   c    90
             : O3   c    91 O3   c    92 O3   c    93 O3   c    94 O3   c    95
             : O3   c    96 O3   c    97 O3   c    98 O3   c    99 O3   c   100
             : O3   c   101 O3   c   102 O3   c   103 O3   c   104 O3   c   105
             : O3   c   106 O3   c   107 O3   c   108 O3   c   109 O3   c   110
             : O3   c   111 O3   c   112 O3   c   113 O3   c   114 O3   c   115
             : O3   c   116 O3   c   117 O3   c   118 O3   c   119 O3   c   120
             : O3   c   121 O3   c   122 O3   c   123 O3   c   124 O3   c   125
             : O3   c   126 O3   c   127 O3   c   128 O3   c   129 O3   c   130
             : O3   c   131 O3   c   132 O3   c   133 O3   c   134 O3   c   135
             : O3   c   136 O3   c   137 O3   c   138 O3   c   139 O3   c   140
             : O3   c   141 O3   c   142 O3   c   143 O3   c   144 O3   c   145
             : O3   c   146 O3   c   147 O3   c   148 O3   c   149 O3   c   150
             : O3   c   151 O3   c   152 C4   c   153 C4   c   154 C4   c   155
             : C4   c   156 C4   c   157 C4   c   158 C4   c   159 C4   c   160
             : C4   c   161 C4   c   162 C4   c   163 C4   c   164 C4   c   165
             : C4   c   166 C4   c   167 C4   c   168 C4   c   169 C4   c   170
             : C4   c   171 C4   c   172 C4   c   173 C4   c   174 C4   c   175
             : C4   c   176 C4   c   177 C4   c   178 C4   c   179 C4   c   180
             : C4   c   181 C4   c   182 C4   c   183 C4   c   184 C4   c   185
             : C4   c   186 C4   c   187 C4   c   188 C4   c   189 C4   c   190
             : C4   c   191 C4   c   192 C4   c   193 C4   c   194 C4   c   195
             : C4   c   196 C4   c   197 C4   c   198 C4   c   199 C4   c   200
             : C4   c   201 C4   c   202 C4   c   203 C4   c   204 C4   c   205
             : C4   c   206 C4   c   207 C4   c   208 C4   c   209 C4   c   210
             : C4   c   211 C4   c   212 C4   c   213 C4   c   214 C4   c   215
             : C4   c   216 C4   c   217 C4   c   218 C4   c   219 C4   c   220
             : C4   c   221 C4   c   222 C4   c   223 C4   c   224 C4   c   225
             : C4   c   226 C4   c   227 C4   c   228 C4   c   229 C4   c   230
             : C4   c   231 C4   c   232 C4   c   233 C4   c   234 C4   c   235
             : C4   c   236 C4   c   237 C4   c   238 C4   c   239 C4   c   240
             : C4   c   241 C4   c   242 C4   c   243 C4   c   244 C4   c   245
             : C4   c   246 C4   c   247 C4   c   248 C4   c   249 C4   c   250
             : C4   c   251 C4   c   252 C4   c   253 C4   c   254 C4   c   255
             : C4   c   256 C4   c   257 C4   c   258 C4   c   259 C4   c   260
             : C4   c   261 C4   c   262 C4   c   263 C4   c   264 C4   c   265
             : C4   c   266 C4   c   267 C4   c   268 C4   c   269 C4   c   270
             : C4   c   271 C4   c   272 C4   c   273 C4   c   274 C4   c   275
             : C4   c   276 C4   c   277 C4   c   278 C4   c   279 C4   c   280
             : C4   c   281 C4   c   282 C4   c   283 C4   c   284 C4   c   285
             : C4   c   286 C4   c   287 C4   c   288 C4   c   289 C4   c   290
             : C4   c   291 C4   c   292 C4   c   293 C4   c   294 C4   c   295
             : C4   c   296 C4   c   297 C4   c   298 C4   c   299 C4   c   300
             : C4   c   301 C4   c   302 C4   c   303 C4   c   304 C4   c   305
             : C4   c   306 C4   c   307 C4   c   308 C4   c   309 C4   c   310
             : C4   c   311 C4   c   312 C4   c   313 C4   c   314 C4   c   315
             : C4   c   316 C4   c   317 C4   c   318 C4   c   319 C4   c   320
             : C4   c   321 C4   c   322 C4   c   323 C4   c   324 C4   c   325
             : C4   c   326 C4   c   327 C4   c   328 C4   c   329 C4   c   330
             : C4   c   331 C4   c   332 C4   c   333 C4   c   334 C4   c   335
             : C4   c   336 C4   c   337 C4   c   338 C4   c   339 C4   c   340
             : C4   c   341 C4   c   342 C4   c   343 C4   c   344 H5   c   345
             : H5   c   346 H5   c   347 H5   c   348 H5   c   349 H5   c   350
             : H5   c   351 H5   c   352 H5   c   353 H5   c   354 H5   c   355
             : H5   c   356 H5   c   357 H5   c   358 H5   c   359 H5   c   360
             : H5   c   361 H5   c   362 H5   c   363 H5   c   364 H5   c   365
             : H5   c   366 H5   c   367 H5   c   368 H5   c   369 H5   c   370
             : H5   c   371 H5   c   372 H5   c   373 H5   c   374 H5   c   375
             : H5   c   376 H5   c   377 H5   c   378 H5   c   379 H5   c   380
             : H5   c   381 H5   c   382 H5   c   383 H5   c   384 H5   c   385
             : H5   c   386 H5   c   387 H5   c   388 H5   c   389 H5   c   390
             : H5   c   391 H5   c   392 H5   c   393 H5   c   394 H5   c   395
             : H5   c   396 H5   c   397 H5   c   398 H5   c   399 H5   c   400
             : H5   c   401 H5   c   402 H5   c   403 H5   c   404 H5   c   405
             : H5   c   406 H5   c   407 H5   c   408 H5   c   409 H5   c   410
             : H5   c   411 H5   c   412 H5   c   413 H5   c   414 H5   c   415
             : H5   c   416 H5   c   417 H5   c   418 H5   c   419 H5   c   420
             : H5   c   421 H5   c   422 H5   c   423 H5   c   424 H5   c   425
             : H5   c   426 H5   c   427 H5   c   428 H5   c   429 H5   c   430
             : H5   c   431 H5   c   432 H5   c   433 H5   c   434 H5   c   435
             : H5   c   436 H5   c   437 H5   c   438 H5   c   439 H5   c   440
--------------------------------------------------------------------------------


[...]
    187 C4    c       0.001709     -0.000053     -0.002853      0.000000
    188 C4    c       0.000903      0.001137      0.000005      0.000000
    189 C4    c      -0.002012      0.001116     -0.004541      0.000000
    190 C4    c       0.001301     -0.000548      0.000909      0.000000
    191 C4    c       0.000800      0.001617     -0.003615      0.000000
    192 C4    c       0.000415      0.002806      0.000417      0.000000
    193 C4    c      -0.000673     -0.000057     -0.000553      0.000000
    194 C4    c      -0.000307     -0.000384     -0.000173      0.000000
    195 C4    c       0.003830      0.000094     -0.000055      0.000000
    196 C4    c       0.000671      0.000944     -0.000467      0.000000
    197 C4    c      -0.001176     -0.000566      0.001442      0.000000
    198 C4    c       0.000028      0.004130     -0.003383      0.000000
    199 C4    c       0.000299      0.000644      0.000917      0.000000
    200 C4    c      -0.004420      0.001058     -0.000329      0.000000
    201 C4    c      -0.001260      0.001063     -0.000276      0.000000
    202 C4    c      -0.005734      0.002394     -0.001191      0.000000
    203 C4    c       0.001170     -0.000774     -0.003079      0.000000
    204 C4    c       0.001228     -0.007394     -0.000191      0.000000
    205 C4    c       0.000606     -0.001558     -0.003342      0.000000
    206 C4    c       0.001361      0.003349      0.002903      0.000000
    207 C4    c       0.000963      0.000782     -0.000571      0.000000
    208 C4    c       0.002872      0.003526      0.000180      0.000000
    209 C4    c       0.000930     -0.000257      0.001087      0.000000
    210 C4    c       0.000262     -0.001739      0.004280      0.000000
    211 C4    c      -0.002575      0.000228     -0.002887      0.000000
    212 C4    c      -0.000449      0.001710     -0.000920      0.000000
    213 C4    c      -0.000021     -0.000064     -0.005042      0.000000
    214 C4    c      -0.001838      0.002984     -0.000242      0.000000
    215 C4    c       0.000956     -0.002906     -0.004130      0.000000
    216 C4    c       0.001482     -0.004847     -0.000040      0.000000
    217 C4    c       0.000194      0.002299     -0.001692      0.000000
    218 C4    c       0.000869      0.003779     -0.000633      0.000000
    219 C4    c       0.003698     -0.000929      0.004960      0.000000
    220 C4    c       0.003471      0.001038     -0.000224      0.000000
    221 C4    c       0.006305      0.000470     -0.001258      0.000000
    222 C4    c       0.000445      0.002185      0.003045      0.000000
    223 C4    c       0.002998     -0.000697      0.000026      0.000000
    224 C4    c      -0.003387      0.001559      0.000741      0.000000
    225 C4    c      -0.003218      0.000287     -0.002061      0.000000
    226 C4    c       0.000406     -0.003318      0.000336      0.000000
    227 C4    c      -0.000406      0.000548     -0.003675      0.000000
    228 C4    c       0.001158     -0.001469      0.000151      0.000000
    229 C4    c      -0.000013      0.003604     -0.004098      0.000000
    230 C4    c       0.000441      0.003674      0.001782      0.000000
    231 C4    c       0.000637     -0.000544      0.000532      0.000000
    232 C4    c       0.002454      0.002054      0.000601      0.000000
    233 C4    c      -0.000121     -0.000678      0.001258      0.000000
    234 C4    c       0.000332     -0.001456      0.002764      0.000000
    235 C4    c       0.001703     -0.000047     -0.003647      0.000000
    236 C4    c      -0.000143      0.004007     -0.000385      0.000000
    237 C4    c      -0.004948      0.000781     -0.005601      0.000000
    238 C4    c      -0.001409     -0.002221      0.001182      0.000000
    239 C4    c      -0.000359     -0.003248     -0.000933      0.000000
    240 C4    c       0.005116     -0.005885      0.000210      0.000000
    241 C4    c      -0.000159      0.000675     -0.002317      0.000000
    242 C4    c       0.000302     -0.000486      0.004601      0.000000
    243 C4    c       0.002397     -0.000245      0.001013      0.000000
    244 C4    c       0.001771      0.001291     -0.000056      0.000000
    245 C4    c      -0.003795      0.000140     -0.002269      0.000000
    246 C4    c      -0.000337     -0.002616     -0.001798      0.000000
    247 C4    c       0.003427      0.000013     -0.004268      0.000000
    248 C4    c      -0.003041     -0.002009      0.000163      0.000000
    249 C4    c      -0.000458      0.001844     -0.001479      0.000000
    250 C4    c      -0.004275     -0.003267      0.002519      0.000000
    251 C4    c       0.002413     -0.002553      0.000615      0.000000
    252 C4    c       0.001187      0.002811      0.002939      0.000000
    253 C4    c       0.001117      0.001371      0.002315      0.000000
    254 C4    c      -0.003164      0.005304      0.002433      0.000000
    255 C4    c      -0.002889     -0.003961      0.004087      0.000000
    256 C4    c       0.002827      0.000842     -0.002887      0.000000
    257 C4    c       0.001439     -0.001359      0.005707      0.000000
    258 C4    c       0.001051      0.000603      0.003864      0.000000
    259 C4    c       0.002379      0.002146     -0.000928      0.000000
    260 C4    c      -0.003844      0.006383     -0.002991      0.000000
    261 C4    c       0.000379     -0.002374     -0.002965      0.000000
    262 C4    c      -0.009409      0.003370      0.004662      0.000000
    263 C4    c      -0.000716     -0.004358      0.000930      0.000000
    264 C4    c       0.002013      0.005397      0.005126      0.000000
    265 C4    c       0.005444      0.002962      0.002241      0.000000
    266 C4    c      -0.001797      0.004909      0.002313      0.000000
    267 C4    c      -0.004707     -0.002297      0.001496      0.000000
    268 C4    c       0.001567     -0.003001     -0.001324      0.000000
    269 C4    c       0.005729     -0.006601     -0.003247      0.000000
    270 C4    c      -0.001154      0.001981     -0.002677      0.000000
    271 C4    c      -0.003085      0.001572     -0.002090      0.000000
    272 C4    c      -0.003525     -0.000551     -0.004711      0.000000
    273 C4    c      -0.002702      0.000931     -0.003483      0.000000
    274 C4    c      -0.006410     -0.005150      0.002513      0.000000
    275 C4    c       0.002008     -0.005260     -0.002907      0.000000
    276 C4    c       0.006350      0.001015     -0.001950      0.000000
    277 C4    c       0.000376      0.004372     -0.002386      0.000000
    278 C4    c      -0.003281      0.006434      0.002113      0.000000
    279 C4    c      -0.002972     -0.003345      0.008158      0.000000
    280 C4    c       0.002496      0.001029     -0.001060      0.000000
    281 C4    c      -0.002207      0.002297      0.002496      0.000000
    282 C4    c       0.000975     -0.003426      0.002301      0.000000
    283 C4    c       0.002260      0.001103     -0.000048      0.000000
    284 C4    c       0.000612      0.004068     -0.001434      0.000000
    285 C4    c       0.000569     -0.000034     -0.004593      0.000000
    286 C4    c      -0.002607     -0.000591      0.000868      0.000000
    287 C4    c      -0.001273     -0.002925      0.000359      0.000000
    288 C4    c       0.002623     -0.000067      0.005155      0.000000
    289 C4    c       0.009391      0.003335     -0.006410      0.000000
    290 C4    c      -0.001528      0.001320      0.001291      0.000000
    291 C4    c      -0.004059     -0.000973     -0.001875      0.000000
    292 C4    c       0.000921     -0.004658     -0.002246      0.000000
    293 C4    c       0.001088     -0.002819      0.002040      0.000000
    294 C4    c      -0.001417      0.001618     -0.003473      0.000000
    295 C4    c      -0.007980     -0.003477      0.006427      0.000000
    296 C4    c      -0.003133     -0.002694     -0.005094      0.000000
    297 C4    c      -0.002175      0.003586     -0.004298      0.000000
    298 C4    c      -0.001374     -0.000703      0.001141      0.000000
    299 C4    c       0.000872     -0.002314      0.002729      0.000000
    300 C4    c       0.003280     -0.003699     -0.001273      0.000000
    301 C4    c       0.002743      0.003090      0.001346      0.000000
    302 C4    c      -0.005725      0.003397     -0.005970      0.000000
    303 C4    c      -0.000399     -0.002143      0.001667      0.000000
    304 C4    c       0.000476     -0.000151     -0.002546      0.000000
    305 C4    c       0.004104      0.002819      0.001017      0.000000
    306 C4    c      -0.001432     -0.000173      0.003047      0.000000
    307 C4    c       0.003008     -0.001445      0.002007      0.000000
    308 C4    c      -0.001883      0.003721     -0.001819      0.000000
    309 C4    c      -0.002299      0.001523     -0.003359      0.000000
    310 C4    c      -0.005041      0.000292      0.002333      0.000000
    311 C4    c       0.001344     -0.001256     -0.000191      0.000000
    312 C4    c       0.005157      0.000508      0.007458      0.000000
    313 C4    c       0.001127      0.002191      0.000658      0.000000
    314 C4    c       0.002762      0.006007      0.002138      0.000000
    315 C4    c      -0.005798     -0.003006      0.002943      0.000000
    316 C4    c       0.002649     -0.002477     -0.001220      0.000000
    317 C4    c      -0.002286     -0.004372      0.001206      0.000000
    318 C4    c      -0.003675      0.005992     -0.008174      0.000000
    319 C4    c      -0.004214     -0.001633      0.000712      0.000000
    320 C4    c      -0.000233     -0.001999     -0.002895      0.000000
    321 C4    c       0.005098      0.003253     -0.005898      0.000000
    322 C4    c      -0.004837     -0.001227      0.002325      0.000000
    323 C4    c       0.005255     -0.002661      0.000790      0.000000
    324 C4    c       0.007692      0.002813     -0.004005      0.000000
    325 C4    c      -0.001923      0.004995     -0.002013      0.000000
    326 C4    c      -0.000799      0.002816      0.001239      0.000000
    327 C4    c       0.000283     -0.000665      0.003823      0.000000
    328 C4    c       0.001938     -0.000645     -0.002041      0.000000
    329 C4    c       0.001586      0.000446      0.005182      0.000000
    330 C4    c       0.003821     -0.002298      0.005161      0.000000
    331 C4    c       0.000547      0.002832     -0.001236      0.000000
    332 C4    c       0.002888      0.001544      0.003027      0.000000
    333 C4    c       0.002215     -0.002742     -0.002854      0.000000
    334 C4    c      -0.008769      0.006508     -0.003596      0.000000
    335 C4    c      -0.002502     -0.007324      0.008965      0.000000
    336 C4    c       0.000195      0.002378      0.003638      0.000000
    337 C4    c       0.001455      0.001243      0.000763      0.000000
    338 C4    c       0.001728      0.003707      0.001802      0.000000
    339 C4    c      -0.008108     -0.003668      0.005189      0.000000
    340 C4    c      -0.001182     -0.003843     -0.002945      0.000000
    341 C4    c      -0.004497     -0.006205      0.004021      0.000000
    342 C4    c       0.000933     -0.000641     -0.000906      0.000000
    343 C4    c      -0.004257     -0.000767      0.003058      0.000000
    344 C4    c      -0.005474     -0.001644     -0.006731      0.000000
    345 H5    c      -0.000685      0.001295      0.003450      0.000000
    346 H5    c       0.002854     -0.001130      0.001673      0.000000
    347 H5    c       0.003758      0.000117     -0.000938      0.000000
    348 H5    c      -0.002676      0.000836     -0.002509      0.000000
    349 H5    c      -0.001796     -0.001699      0.000687      0.000000
    350 H5    c       0.002683     -0.003306     -0.001995      0.000000
    351 H5    c       0.000232      0.001800     -0.001625      0.000000
    352 H5    c      -0.000392      0.000859      0.003847      0.000000
    353 H5    c       0.001765     -0.005059     -0.000772      0.000000
    354 H5    c       0.000118     -0.001165     -0.003927      0.000000
    355 H5    c      -0.000246      0.004301      0.001175      0.000000
    356 H5    c       0.000457      0.001056      0.002161      0.000000
    357 H5    c      -0.000345     -0.001761      0.001544      0.000000
    358 H5    c       0.000566      0.000947     -0.001064      0.000000
    359 H5    c      -0.003365      0.002622     -0.001108      0.000000
    360 H5    c      -0.000862     -0.000656     -0.002821      0.000000
    361 H5    c      -0.000211     -0.003106     -0.000182      0.000000
    362 H5    c      -0.001373     -0.002278     -0.003789      0.000000
    363 H5    c       0.005363     -0.002763      0.001312      0.000000
    364 H5    c      -0.000538      0.000648     -0.003602      0.000000
    365 H5    c       0.001054      0.001324      0.002857      0.000000
    366 H5    c       0.003034      0.001128      0.000188      0.000000
    367 H5    c       0.002495      0.001843      0.001021      0.000000
    368 H5    c      -0.000680     -0.000972      0.002705      0.000000
    369 H5    c      -0.001390      0.002957      0.001506      0.000000
    370 H5    c       0.001216     -0.000448      0.003191      0.000000
    371 H5    c       0.004022      0.001585     -0.001246      0.000000
    372 H5    c      -0.006383      0.002257      0.000257      0.000000
    373 H5    c      -0.002424     -0.000394      0.000080      0.000000
    374 H5    c       0.002486     -0.000840     -0.000487      0.000000
    375 H5    c       0.000540      0.002029     -0.002166      0.000000
    376 H5    c      -0.002513      0.000245      0.001110      0.000000
    377 H5    c       0.001112     -0.004322     -0.000336      0.000000
    378 H5    c       0.002517      0.001139     -0.000479      0.000000
    379 H5    c      -0.002591      0.002393     -0.000766      0.000000
    380 H5    c       0.000602     -0.002152      0.003468      0.000000
    381 H5    c      -0.000176     -0.003547      0.001322      0.000000
    382 H5    c       0.002168     -0.000489     -0.004970      0.000000
    383 H5    c      -0.002436      0.001388      0.000797      0.000000
    384 H5    c      -0.000375     -0.001492     -0.006049      0.000000
    385 H5    c      -0.002504     -0.002330     -0.000052      0.000000
    386 H5    c      -0.000664     -0.003564     -0.001928      0.000000
    387 H5    c       0.001793     -0.002159      0.000745      0.000000
    388 H5    c      -0.000346      0.000432     -0.002347      0.000000
    389 H5    c       0.001777      0.000421      0.003395      0.000000
    390 H5    c       0.002452      0.000334      0.002725      0.000000
    391 H5    c       0.001721      0.003473      0.001281      0.000000
    392 H5    c      -0.002948     -0.000485      0.001012      0.000000
    393 H5    c      -0.000258      0.002074      0.000879      0.000000
    394 H5    c       0.003081     -0.001029      0.002140      0.000000
    395 H5    c       0.001299      0.001480      0.000072      0.000000
    396 H5    c      -0.000299      0.001339     -0.002987      0.000000
    397 H5    c      -0.002371     -0.002344      0.001259      0.000000
    398 H5    c       0.002117     -0.002244     -0.000867      0.000000
    399 H5    c      -0.000467      0.001466     -0.000812      0.000000
    400 H5    c      -0.002626     -0.001025     -0.000025      0.000000
    401 H5    c       0.000898     -0.002867     -0.003697      0.000000
    402 H5    c      -0.000150      0.000708     -0.000986      0.000000
    403 H5    c      -0.001196      0.003330     -0.000461      0.000000
    404 H5    c       0.001518     -0.001394      0.001944      0.000000
    405 H5    c      -0.001000     -0.004417      0.001986      0.000000
    406 H5    c       0.001850     -0.001152     -0.001146      0.000000
    407 H5    c      -0.001440      0.002610      0.000769      0.000000
    408 H5    c      -0.002150     -0.000912     -0.000938      0.000000
    409 H5    c      -0.000698     -0.002468     -0.001241      0.000000
    410 H5    c      -0.000528     -0.002142      0.000213      0.000000
    411 H5    c       0.001575     -0.002876      0.000725      0.000000
    412 H5    c       0.000521      0.000517     -0.001745      0.000000
    413 H5    c       0.000114     -0.000208      0.001537      0.000000
    414 H5    c       0.003659      0.000569      0.001606      0.000000
    415 H5    c      -0.000661      0.004298      0.000140      0.000000
    416 H5    c       0.000539      0.001073      0.003448      0.000000
    417 H5    c      -0.000423      0.003418      0.005009      0.000000
    418 H5    c       0.005612     -0.001644      0.000671      0.000000
    419 H5    c       0.002310      0.002466     -0.000276      0.000000
    420 H5    c       0.000383      0.000340     -0.002708      0.000000
    421 H5    c      -0.001821     -0.000869      0.001102      0.000000
    422 H5    c       0.003388     -0.000393      0.001112      0.000000
    423 H5    c       0.000854      0.004465     -0.001150      0.000000
    424 H5    c       0.000298      0.000981      0.003073      0.000000
    425 H5    c       0.000316     -0.001479     -0.003143      0.000000
    426 H5    c       0.002205      0.000325     -0.002034      0.000000
    427 H5    c      -0.003291      0.000969     -0.001631      0.000000
    428 H5    c      -0.000133     -0.002182      0.002358      0.000000
    429 H5    c       0.000802     -0.001686      0.000544      0.000000
    430 H5    c       0.001524     -0.000369     -0.002602      0.000000
    431 H5    c       0.000433      0.003527      0.001561      0.000000
    432 H5    c      -0.002797     -0.000486     -0.000311      0.000000
    433 H5    c      -0.001623     -0.001266     -0.000931      0.000000
    434 H5    c      -0.000006     -0.000531     -0.002817      0.000000
    435 H5    c       0.002990     -0.003250     -0.000975      0.000000
    436 H5    c      -0.001707      0.001409     -0.005278      0.000000
    437 H5    c       0.001047      0.001262      0.001025      0.000000
    438 H5    c       0.000188      0.001970      0.005484      0.000000
    439 H5    c       0.002850      0.002148      0.000508      0.000000
    440 H5    c      -0.002293     -0.000740      0.000158      0.000000
--------------------------------------------------------------------------------
  Maximum abs         0.009409      0.007394      0.008965      0.000000
--------------------------------------------------------------------------------


  Time to end of optimisation =      60.0788 seconds


  Peak dynamic memory used =      38.86 MB 


  Timing analysis for GULP :

--------------------------------------------------------------------------------
  Task / Subroutine                                          Time (Seconds)
--------------------------------------------------------------------------------
  Calculation of real space energy and derivatives                7.5696
  Calculation of three-body energy and derivatives               18.9480
  Calculation of four-body energy and derivatives                 0.9160
  Calculation of molecules and connectivity                      30.3632
  Calculation and manipulation of Hessian matrix                  0.0071
  Calculation of matrix inversion                                 2.1605
--------------------------------------------------------------------------------
  Total CPU time                                                 60.0789
--------------------------------------------------------------------------------


  CIF file written as RUBTAK01.cif


  Job Finished at 13:03.47  3rd February   2022                               

