================================================================================
| EXCITING BORON started                                                       =
| version hash id:                                                             =
| MPI version using     16 processor(s)                                        =
|                                                                              =
| Date (DD-MM-YYYY) : 09-08-2015                                               =
| Time (hh:mm:ss)   : 22:07:38                                                 =
|                                                                              =
| All units are atomic (Hartree, Bohr, etc.)                                   =
================================================================================
 
********************************************************************************
| Structural optimisation starting from atomic densities                       *
********************************************************************************
 
++++++++++++++++++++++++++++++++++++++++++++++++++++++++++++++++++++++++++++++++
| Starting initialization                                                      +
++++++++++++++++++++++++++++++++++++++++++++++++++++++++++++++++++++++++++++++++
 
 Lattice vectors (cartesian) :
      2.5491007826      4.4151720691      0.0000000000
     -2.5491007826      4.4151720691      0.0000000000
      0.0000000000      0.0000000000      7.2037588117
 
 Reciprocal lattice vectors (cartesian) :
      1.2324317167      0.7115447834      0.0000000000
     -1.2324317167      0.7115447834      0.0000000000
      0.0000000000      0.0000000000      0.8722092829
 
 Unit cell volume                           :     162.1525562405
 Brillouin zone volume                      :       1.5297335990
 
 Species :    1 (C)
     parameters loaded from                 :    C.xml
     name                                   :    carbon
     nuclear charge                         :      -6.00000000
     electronic charge                      :       6.00000000
     atomic mass                            :   21894.16673000
     muffin-tin radius                      :       1.20000000
     # of radial points in muffin-tin       :     250
 
     atomic positions (lattice) :
       1 :   0.00000000  0.00000000  0.00000000
       2 :   0.33333333  0.33333333  0.00000000
 
 Total number of atoms per unit cell        :       2
 
 Spin treatment                             :    spin-unpolarised
 
 Number of Bravais lattice symmetries       :      24
 Number of crystal symmetries               :      24
 
 k-point grid                               :      34   34   24
 Total number of k-points                   :    1482
 k-point set is reduced with crystal symmetries
 
 R^MT_min * |G+k|_max (rgkmax)              :       8.00000000
 Species with R^MT_min                      :       1 (C)
 Maximum |G+k| for APW functions            :       6.66666667
 Maximum |G| for potential and density      :      20.00000000
 
 G-vector grid sizes                        :      36    36    48
 Total number of G-vectors                  :   21885
 
 Maximum angular momentum used for
     APW functions                          :       8
     computing H and O matrix elements      :       8
     potential and density                  :       8
     inner part of muffin-tin               :       2
 
 Total nuclear charge                       :     -12.00000000
 Total electronic charge                    :      12.00000000
 Total core charge                          :       4.00000000
 Total valence charge                       :       8.00000000
 
 Number of empty states                     :       5
 Total number of valence states             :      10
 
 Maximum Hamiltonian size                   :     846
 Maximum number of plane-waves              :     838
 Total number of local-orbitals             :       8
 
 Exchange-correlation type                  :      20
     Perdew-Burke-Ernzerhof, Phys. Rev. Lett. 77, 3865 (1996)
     Generalised gradient approximation (GGA)
 
 Smearing scheme                            :    Gaussian
 Smearing width                             :       0.01000000
 
 Using multisecant Broyden potential mixing
 
++++++++++++++++++++++++++++++++++++++++++++++++++++++++++++++++++++++++++++++++
| Ending initialization                                                        +
++++++++++++++++++++++++++++++++++++++++++++++++++++++++++++++++++++++++++++++++
 
********************************************************************************
| Groundstate module started                                                   *
********************************************************************************
 Output level for this task is set to normal
 
++++++++++++++++++++++++++++++++++++++++++++++++++++++++++++++++++++++++++++++++
| Self-consistent loop started                                                 +
++++++++++++++++++++++++++++++++++++++++++++++++++++++++++++++++++++++++++++++++
 Density and potential initialised from atomic data
 
 
++++++++++++++++++++++++++++++++++++++++++++++++++++++++++++++++++++++++++++++++
| SCF iteration number :    1                                                  +
++++++++++++++++++++++++++++++++++++++++++++++++++++++++++++++++++++++++++++++++
 Total energy                               :       -77.47594497
 _______________________________________________________________
 Fermi energy                               :         0.08638427
 Kinetic energy                             :        74.30954131
 Coulomb energy                             :      -141.09928665
 Exchange energy                            :       -10.28179847
 Correlation energy                         :        -0.40440116
 
 DOS at Fermi energy (states/Ha/cell)       :         1.18641641
 
 Electron charges :
     core                                   :         4.00000000
     core leakage                           :         0.00126726
     valence                                :         8.00000000
     interstitial                           :         4.94241989
     charge in muffin-tin spheres :
                  atom     1     C          :         3.52879006
                  atom     2     C          :         3.52879006
     total charge in muffin-tins            :         7.05758011
     total charge                           :        12.00000000
 
 Wall time (seconds)                        :        80.38
 
++++++++++++++++++++++++++++++++++++++++++++++++++++++++++++++++++++++++++++++++
| SCF iteration number :    2                                                  +
++++++++++++++++++++++++++++++++++++++++++++++++++++++++++++++++++++++++++++++++
 Total energy                               :       -76.98915041
 _______________________________________________________________
 Fermi energy                               :         0.10069520
 Kinetic energy                             :        74.63596080
 Coulomb energy                             :      -140.96287970
 Exchange energy                            :       -10.25731603
 Correlation energy                         :        -0.40491549
 
 DOS at Fermi energy (states/Ha/cell)       :         1.22468384
 
 Electron charges :
     core                                   :         4.00000000
     core leakage                           :         0.00127301
     valence                                :         8.00000000
     interstitial                           :         4.98271195
     charge in muffin-tin spheres :
                  atom     1     C          :         3.50864402
                  atom     2     C          :         3.50864402
     total charge in muffin-tins            :         7.01728805
     total charge                           :        12.00000000
 
 Wall time (seconds)                        :       157.89
 
 RMS change in effective potential (target) :   1.39938      ( 0.100000E-05)
 Absolute change in total energy   (target) :  0.486795      ( 0.100000E-06)
 Charge distance                   (target) :  0.875329E-02  ( 0.100000E-04)
 Abs. change in max-nonIBS-force   (target) :   0.00000      ( 0.250000E-05)
 
++++++++++++++++++++++++++++++++++++++++++++++++++++++++++++++++++++++++++++++++
| SCF iteration number :    3                                                  +
++++++++++++++++++++++++++++++++++++++++++++++++++++++++++++++++++++++++++++++++
 Total energy                               :       -76.64878935
 _______________________________________________________________
 Fermi energy                               :         0.11051341
 Kinetic energy                             :        74.86386769
 Coulomb energy                             :      -140.86743966
 Exchange energy                            :       -10.23991666
 Correlation energy                         :        -0.40530073
 
 DOS at Fermi energy (states/Ha/cell)       :         1.25543830
 
 Electron charges :
     core                                   :         4.00000000
     core leakage                           :         0.00127633
     valence                                :         8.00000000
     interstitial                           :         5.01154087
     charge in muffin-tin spheres :
                  atom     1     C          :         3.49422956
                  atom     2     C          :         3.49422956
     total charge in muffin-tins            :         6.98845913
     total charge                           :        12.00000000
 
 Wall time (seconds)                        :       236.61
 
 RMS change in effective potential (target) :   1.02813      ( 0.100000E-05)
 Absolute change in total energy   (target) :  0.340361      ( 0.100000E-06)
 Charge distance                   (target) :  0.634483E-02  ( 0.100000E-04)
 Abs. change in max-nonIBS-force   (target) :   0.00000      ( 0.250000E-05)
 
++++++++++++++++++++++++++++++++++++++++++++++++++++++++++++++++++++++++++++++++
| SCF iteration number :    4                                                  +
++++++++++++++++++++++++++++++++++++++++++++++++++++++++++++++++++++++++++++++++
 Total energy                               :       -76.52175975
 _______________________________________________________________
 Fermi energy                               :         0.11441209
 Kinetic energy                             :        74.96430741
 Coulomb energy                             :      -140.84890143
 Exchange energy                            :       -10.23165447
 Correlation energy                         :        -0.40551126
 
 DOS at Fermi energy (states/Ha/cell)       :         1.27399515
 
 Electron charges :
     core                                   :         4.00000000
     core leakage                           :         0.00126795
     valence                                :         8.00000000
     interstitial                           :         5.02812215
     charge in muffin-tin spheres :
                  atom     1     C          :         3.48593892
                  atom     2     C          :         3.48593892
     total charge in muffin-tins            :         6.97187785
     total charge                           :        12.00000000
 
 Wall time (seconds)                        :       313.67
 
 RMS change in effective potential (target) :  0.355140E-01  ( 0.100000E-05)
 Absolute change in total energy   (target) :  0.127030      ( 0.100000E-06)
 Charge distance                   (target) :  0.428167E-02  ( 0.100000E-04)
 Abs. change in max-nonIBS-force   (target) :   0.00000      ( 0.250000E-05)
 
++++++++++++++++++++++++++++++++++++++++++++++++++++++++++++++++++++++++++++++++
| SCF iteration number :    5                                                  +
++++++++++++++++++++++++++++++++++++++++++++++++++++++++++++++++++++++++++++++++
 Total energy                               :       -75.96767466
 _______________________________________________________________
 Fermi energy                               :         0.12958553
 Kinetic energy                             :        75.31597847
 Coulomb energy                             :      -140.67344723
 Exchange energy                            :       -10.20404779
 Correlation energy                         :        -0.40615811
 
 DOS at Fermi energy (states/Ha/cell)       :         1.32752388
 
 Electron charges :
     core                                   :         4.00000000
     core leakage                           :         0.00128062
     valence                                :         8.00000000
     interstitial                           :         5.07167272
     charge in muffin-tin spheres :
                  atom     1     C          :         3.46416364
                  atom     2     C          :         3.46416364
     total charge in muffin-tins            :         6.92832728
     total charge                           :        12.00000000
 
 Wall time (seconds)                        :       390.16
 
 RMS change in effective potential (target) :  0.222546E-01  ( 0.100000E-05)
 Absolute change in total energy   (target) :  0.554085      ( 0.100000E-06)
 Charge distance                   (target) :  0.925608E-02  ( 0.100000E-04)
 Abs. change in max-nonIBS-force   (target) :   0.00000      ( 0.250000E-05)
 
++++++++++++++++++++++++++++++++++++++++++++++++++++++++++++++++++++++++++++++++
| SCF iteration number :    6                                                  +
++++++++++++++++++++++++++++++++++++++++++++++++++++++++++++++++++++++++++++++++
 Total energy                               :       -76.17004558
 _______________________________________________________________
 Fermi energy                               :         0.12410804
 Kinetic energy                             :        75.18803178
 Coulomb energy                             :      -140.73796731
 Exchange energy                            :       -10.21419320
 Correlation energy                         :        -0.40591685
 
 DOS at Fermi energy (states/Ha/cell)       :         1.30711968
 
 Electron charges :
     core                                   :         4.00000000
     core leakage                           :         0.00127603
     valence                                :         8.00000000
     interstitial                           :         5.05569065
     charge in muffin-tin spheres :
                  atom     1     C          :         3.47215467
                  atom     2     C          :         3.47215467
     total charge in muffin-tins            :         6.94430935
     total charge                           :        12.00000000
 
 Wall time (seconds)                        :       469.84
 
 RMS change in effective potential (target) :  0.303719E-03  ( 0.100000E-05)
 Absolute change in total energy   (target) :  0.202371      ( 0.100000E-06)
 Charge distance                   (target) :  0.341557E-02  ( 0.100000E-04)
 Abs. change in max-nonIBS-force   (target) :   0.00000      ( 0.250000E-05)
 
++++++++++++++++++++++++++++++++++++++++++++++++++++++++++++++++++++++++++++++++
| SCF iteration number :    7                                                  +
++++++++++++++++++++++++++++++++++++++++++++++++++++++++++++++++++++++++++++++++
 Total energy                               :       -76.17305574
 _______________________________________________________________
 Fermi energy                               :         0.12402548
 Kinetic energy                             :        75.18619147
 Coulomb energy                             :      -140.73899253
 Exchange energy                            :       -10.21434185
 Correlation energy                         :        -0.40591283
 
 DOS at Fermi energy (states/Ha/cell)       :         1.30685415
 
 Electron charges :
     core                                   :         4.00000000
     core leakage                           :         0.00127594
     valence                                :         8.00000000
     interstitial                           :         5.05545799
     charge in muffin-tin spheres :
                  atom     1     C          :         3.47227100
                  atom     2     C          :         3.47227100
     total charge in muffin-tins            :         6.94454201
     total charge                           :        12.00000000
 
 Wall time (seconds)                        :       546.59
 
 RMS change in effective potential (target) :  0.490839E-04  ( 0.100000E-05)
 Absolute change in total energy   (target) :  0.301017E-02  ( 0.100000E-06)
 Charge distance                   (target) :  0.471487E-04  ( 0.100000E-04)
 Abs. change in max-nonIBS-force   (target) :   0.00000      ( 0.250000E-05)
 
++++++++++++++++++++++++++++++++++++++++++++++++++++++++++++++++++++++++++++++++
| SCF iteration number :    8                                                  +
++++++++++++++++++++++++++++++++++++++++++++++++++++++++++++++++++++++++++++++++
 Total energy                               :       -76.17303950
 _______________________________________________________________
 Fermi energy                               :         0.12402557
 Kinetic energy                             :        75.18617445
 Coulomb energy                             :      -140.73896070
 Exchange energy                            :       -10.21434027
 Correlation energy                         :        -0.40591297
 
 DOS at Fermi energy (states/Ha/cell)       :         1.30684546
 
 Electron charges :
     core                                   :         4.00000000
     core leakage                           :         0.00127594
     valence                                :         8.00000000
     interstitial                           :         5.05545969
     charge in muffin-tin spheres :
                  atom     1     C          :         3.47227016
                  atom     2     C          :         3.47227016
     total charge in muffin-tins            :         6.94454031
     total charge                           :        12.00000000
 
 Wall time (seconds)                        :       624.20
 
 RMS change in effective potential (target) :  0.924257E-05  ( 0.100000E-05)
 Absolute change in total energy   (target) :  0.162444E-04  ( 0.100000E-06)
 Charge distance                   (target) :  0.130431E-05  ( 0.100000E-04)
 Abs. change in max-nonIBS-force   (target) :   0.00000      ( 0.250000E-05)
 
++++++++++++++++++++++++++++++++++++++++++++++++++++++++++++++++++++++++++++++++
| SCF iteration number :    9                                                  +
++++++++++++++++++++++++++++++++++++++++++++++++++++++++++++++++++++++++++++++++
 Total energy                               :       -76.17298216
 _______________________________________________________________
 Fermi energy                               :         0.12402722
 Kinetic energy                             :        75.18621703
 Coulomb energy                             :      -140.73894858
 Exchange energy                            :       -10.21433759
 Correlation energy                         :        -0.40591301
 
 DOS at Fermi energy (states/Ha/cell)       :         1.30685306
 
 Electron charges :
     core                                   :         4.00000000
     core leakage                           :         0.00127594
     valence                                :         8.00000000
     interstitial                           :         5.05546411
     charge in muffin-tin spheres :
                  atom     1     C          :         3.47226795
                  atom     2     C          :         3.47226795
     total charge in muffin-tins            :         6.94453589
     total charge                           :        12.00000000
 
 Wall time (seconds)                        :       700.73
 
 RMS change in effective potential (target) :  0.742985E-06  ( 0.100000E-05)
 Absolute change in total energy   (target) :  0.573377E-04  ( 0.100000E-06)
 Charge distance                   (target) :  0.109538E-05  ( 0.100000E-04)
 Abs. change in max-nonIBS-force   (target) :   0.00000      ( 0.250000E-05)
 
++++++++++++++++++++++++++++++++++++++++++++++++++++++++++++++++++++++++++++++++
| SCF iteration number :   10                                                  +
++++++++++++++++++++++++++++++++++++++++++++++++++++++++++++++++++++++++++++++++
 Total energy                               :       -76.17298427
 _______________________________________________________________
 Fermi energy                               :         0.12402716
 Kinetic energy                             :        75.18621597
 Coulomb energy                             :      -140.73894952
 Exchange energy                            :       -10.21433771
 Correlation energy                         :        -0.40591301
 
 DOS at Fermi energy (states/Ha/cell)       :         1.30685293
 
 Electron charges :
     core                                   :         4.00000000
     core leakage                           :         0.00127594
     valence                                :         8.00000000
     interstitial                           :         5.05546394
     charge in muffin-tin spheres :
                  atom     1     C          :         3.47226803
                  atom     2     C          :         3.47226803
     total charge in muffin-tins            :         6.94453606
     total charge                           :        12.00000000
 
 Wall time (seconds)                        :       782.17
 
 RMS change in effective potential (target) :  0.370130E-07  ( 0.100000E-05)
 Absolute change in total energy   (target) :  0.211451E-05  ( 0.100000E-06)
 Charge distance                   (target) :  0.338467E-07  ( 0.100000E-04)
 Abs. change in max-nonIBS-force   (target) :   0.00000      ( 0.250000E-05)
 
++++++++++++++++++++++++++++++++++++++++++++++++++++++++++++++++++++++++++++++++
| SCF iteration number :   11                                                  +
++++++++++++++++++++++++++++++++++++++++++++++++++++++++++++++++++++++++++++++++
 Total energy                               :       -76.17298434
 _______________________________________________________________
 Fermi energy                               :         0.12402716
 Kinetic energy                             :        75.18621591
 Coulomb energy                             :      -140.73894953
 Exchange energy                            :       -10.21433771
 Correlation energy                         :        -0.40591301
 
 DOS at Fermi energy (states/Ha/cell)       :         1.30685292
 
 Electron charges :
     core                                   :         4.00000000
     core leakage                           :         0.00127594
     valence                                :         8.00000000
     interstitial                           :         5.05546393
     charge in muffin-tin spheres :
                  atom     1     C          :         3.47226804
                  atom     2     C          :         3.47226804
     total charge in muffin-tins            :         6.94453607
     total charge                           :        12.00000000
 
 Wall time (seconds)                        :       858.96
 
 RMS change in effective potential (target) :  0.183005E-08  ( 0.100000E-05)
 Absolute change in total energy   (target) :  0.690517E-07  ( 0.100000E-06)
 Charge distance                   (target) :  0.160657E-08  ( 0.100000E-04)
 Abs. change in max-nonIBS-force   (target) :   0.00000      ( 0.250000E-05)
 
++++++++++++++++++++++++++++++++++++++++++++++++++++++++++++++++++++++++++++++++
| Convergence targets achieved. Performing final SCF iteration                 +
++++++++++++++++++++++++++++++++++++++++++++++++++++++++++++++++++++++++++++++++
 Total energy                               :       -76.17968612
 _______________________________________________________________
 Fermi energy                               :         0.12402716
 Kinetic energy                             :        75.18621591
 Coulomb energy                             :      -140.73894953
 Exchange energy                            :       -10.21433771
 Correlation energy                         :        -0.40591301
 DFT-D2 dispersion correction               :        -0.00670178
 
 DOS at Fermi energy (states/Ha/cell)       :         1.30685292
 
 Electron charges :
     core                                   :         4.00000000
     core leakage                           :         0.00127594
     valence                                :         8.00000000
     interstitial                           :         5.05546393
     charge in muffin-tin spheres :
                  atom     1     C          :         3.47226803
                  atom     2     C          :         3.47226803
     total charge in muffin-tins            :         6.94453607
     total charge                           :        12.00000000
 
++++++++++++++++++++++++++++++++++++++++++++++++++++++++++++++++++++++++++++++++
| Self-consistent loop stopped                                                 +
++++++++++++++++++++++++++++++++++++++++++++++++++++++++++++++++++++++++++++++++
 STATE.OUT is written
 
--------------------------------------------------------------------------------
| Writing atomic positions and forces                                          -
--------------------------------------------------------------------------------
 
 Atomic positions (lattice) :
 atom     1   C  :     0.00000000    0.00000000    0.00000000
 atom     2   C  :     0.33333333    0.33333333    0.00000000
 
 Total atomic forces including IBS (cartesian) :
 atom     1   C  :     0.00000000    0.00000000    0.00000000
 atom     2   C  :     0.00000000    0.00000000    0.00000000
 
 Atomic force components including IBS (cartesian) :
 atom     1   C  :     0.00000000    0.00000000    0.00000000   HF force
                 :     0.00000000    0.00000000    0.00000000   core correction
                 :     0.00000000    0.00000000    0.00000000   IBS correction
                 :     0.00000000    0.00000000    0.00000000   DFT-D2 force
 atom     2   C  :     0.00000000    0.00000000    0.00000000   HF force
                 :     0.00000000    0.00000000    0.00000000   core correction
                 :     0.00000000    0.00000000    0.00000000   IBS correction
                 :     0.00000000    0.00000000    0.00000000   DFT-D2 force
 
********************************************************************************
| Groundstate module stopped                                                   *
********************************************************************************
 
********************************************************************************
| Structure-optimization module started                                        *
********************************************************************************
 Output level for this task is set to normal
 
 Maximum displacement tau_BFGS   is         :         0.3000
 Maximum displacement tau_newton is         :         0.8000
 Maximum force target reached already at the initial configuration
 
********************************************************************************
| Structure-optimization module stopped                                        *
********************************************************************************
 
 Total time spent (seconds)                 :       988.63
 
================================================================================
| EXCITING BORON stopped                                                       =
================================================================================
