================================================================================
| EXCITING BORON started                                                       =
| version hash id:                                                             =
| MPI version using     16 processor(s)                                        =
|                                                                              =
| Date (DD-MM-YYYY) : 09-08-2015                                               =
| Time (hh:mm:ss)   : 22:07:38                                                 =
|                                                                              =
| All units are atomic (Hartree, Bohr, etc.)                                   =
================================================================================
 
********************************************************************************
| Structural optimisation starting from atomic densities                       *
********************************************************************************
 
++++++++++++++++++++++++++++++++++++++++++++++++++++++++++++++++++++++++++++++++
| Starting initialization                                                      +
++++++++++++++++++++++++++++++++++++++++++++++++++++++++++++++++++++++++++++++++
 
 Lattice vectors (cartesian) :
      2.1579710239      3.7377154546      0.0000000000
     -2.1579710239      3.7377154546      0.0000000000
      0.0000000000      0.0000000000      6.0984261136
 
 Reciprocal lattice vectors (cartesian) :
      1.4558085437      0.8405114546      0.0000000000
     -1.4558085437      0.8405114546      0.0000000000
      0.0000000000      0.0000000000      1.0302962092
 
 Unit cell volume                           :      98.3783665267
 Brillouin zone volume                      :       2.5213898360
 
 Species :    1 (C)
     parameters loaded from                 :    C.xml
     name                                   :    carbon
     nuclear charge                         :      -6.00000000
     electronic charge                      :       6.00000000
     atomic mass                            :   21894.16673000
     muffin-tin radius                      :       1.20000000
     # of radial points in muffin-tin       :     250
 
     atomic positions (lattice) :
       1 :   0.00000000  0.00000000  0.00000000
       2 :   0.33333333  0.33333333  0.00000000
 
 Total number of atoms per unit cell        :       2
 
 Spin treatment                             :    spin-unpolarised
 
 Number of Bravais lattice symmetries       :      24
 Number of crystal symmetries               :      24
 
 k-point grid                               :      34   34   24
 Total number of k-points                   :    1482
 k-point set is reduced with crystal symmetries
 
 R^MT_min * |G+k|_max (rgkmax)              :       8.00000000
 Species with R^MT_min                      :       1 (C)
 Maximum |G+k| for APW functions            :       6.66666667
 Maximum |G| for potential and density      :      20.00000000
 
 G-vector grid sizes                        :      30    30    40
 Total number of G-vectors                  :   13317
 
 Maximum angular momentum used for
     APW functions                          :       8
     computing H and O matrix elements      :       8
     potential and density                  :       8
     inner part of muffin-tin               :       2
 
 Total nuclear charge                       :     -12.00000000
 Total electronic charge                    :      12.00000000
 Total core charge                          :       4.00000000
 Total valence charge                       :       8.00000000
 
 Number of empty states                     :       5
 Total number of valence states             :      10
 
 Maximum Hamiltonian size                   :     513
 Maximum number of plane-waves              :     505
 Total number of local-orbitals             :       8
 
 Exchange-correlation type                  :      20
     Perdew-Burke-Ernzerhof, Phys. Rev. Lett. 77, 3865 (1996)
     Generalised gradient approximation (GGA)
 
 Smearing scheme                            :    Gaussian
 Smearing width                             :       0.01000000
 
 Using multisecant Broyden potential mixing
 
++++++++++++++++++++++++++++++++++++++++++++++++++++++++++++++++++++++++++++++++
| Ending initialization                                                        +
++++++++++++++++++++++++++++++++++++++++++++++++++++++++++++++++++++++++++++++++
 
********************************************************************************
| Groundstate module started                                                   *
********************************************************************************
 Output level for this task is set to normal
 
++++++++++++++++++++++++++++++++++++++++++++++++++++++++++++++++++++++++++++++++
| Self-consistent loop started                                                 +
++++++++++++++++++++++++++++++++++++++++++++++++++++++++++++++++++++++++++++++++
 Density and potential initialised from atomic data
 
 
++++++++++++++++++++++++++++++++++++++++++++++++++++++++++++++++++++++++++++++++
| SCF iteration number :    1                                                  +
++++++++++++++++++++++++++++++++++++++++++++++++++++++++++++++++++++++++++++++++
 Total energy                               :       -79.14011147
 _______________________________________________________________
 Fermi energy                               :         0.23612493
 Kinetic energy                             :        74.81093212
 Coulomb energy                             :      -142.80588805
 Exchange energy                            :       -10.71375604
 Correlation energy                         :        -0.43139950
 
 DOS at Fermi energy (states/Ha/cell)       :         0.81717477
 
 Electron charges :
     core                                   :         4.00000000
     core leakage                           :         0.00130224
     valence                                :         8.00000000
     interstitial                           :         4.09016742
     charge in muffin-tin spheres :
                  atom     1     C          :         3.95491629
                  atom     2     C          :         3.95491629
     total charge in muffin-tins            :         7.90983258
     total charge                           :        12.00000000
 
 Wall time (seconds)                        :        22.96
 
++++++++++++++++++++++++++++++++++++++++++++++++++++++++++++++++++++++++++++++++
| SCF iteration number :    2                                                  +
++++++++++++++++++++++++++++++++++++++++++++++++++++++++++++++++++++++++++++++++
 Total energy                               :       -78.06154158
 _______________________________________________________________
 Fermi energy                               :         0.26508646
 Kinetic energy                             :        75.54847871
 Coulomb energy                             :      -142.51400814
 Exchange energy                            :       -10.66332351
 Correlation energy                         :        -0.43268864
 
 DOS at Fermi energy (states/Ha/cell)       :         0.88869583
 
 Electron charges :
     core                                   :         4.00000000
     core leakage                           :         0.00132160
     valence                                :         8.00000000
     interstitial                           :         4.17596658
     charge in muffin-tin spheres :
                  atom     1     C          :         3.91201671
                  atom     2     C          :         3.91201671
     total charge in muffin-tins            :         7.82403342
     total charge                           :        12.00000000
 
 Wall time (seconds)                        :        44.54
 
 RMS change in effective potential (target) :   1.69530      ( 0.100000E-05)
 Absolute change in total energy   (target) :   1.07857      ( 0.100000E-06)
 Charge distance                   (target) :  0.163695E-01  ( 0.100000E-04)
 Abs. change in max-nonIBS-force   (target) :   0.00000      ( 0.250000E-05)
 
++++++++++++++++++++++++++++++++++++++++++++++++++++++++++++++++++++++++++++++++
| SCF iteration number :    3                                                  +
++++++++++++++++++++++++++++++++++++++++++++++++++++++++++++++++++++++++++++++++
 Total energy                               :       -77.29209218
 _______________________________________________________________
 Fermi energy                               :         0.28471123
 Kinetic energy                             :        76.06866425
 Coulomb energy                             :      -142.30062214
 Exchange energy                            :       -10.62641039
 Correlation energy                         :        -0.43372389
 
 DOS at Fermi energy (states/Ha/cell)       :         0.95541591
 
 Electron charges :
     core                                   :         4.00000000
     core leakage                           :         0.00133457
     valence                                :         8.00000000
     interstitial                           :         4.23948687
     charge in muffin-tin spheres :
                  atom     1     C          :         3.88025657
                  atom     2     C          :         3.88025657
     total charge in muffin-tins            :         7.76051313
     total charge                           :        12.00000000
 
 Wall time (seconds)                        :        66.17
 
 RMS change in effective potential (target) :   1.25701      ( 0.100000E-05)
 Absolute change in total energy   (target) :  0.769449      ( 0.100000E-06)
 Charge distance                   (target) :  0.122445E-01  ( 0.100000E-04)
 Abs. change in max-nonIBS-force   (target) :   0.00000      ( 0.250000E-05)
 
++++++++++++++++++++++++++++++++++++++++++++++++++++++++++++++++++++++++++++++++
| SCF iteration number :    4                                                  +
++++++++++++++++++++++++++++++++++++++++++++++++++++++++++++++++++++++++++++++++
 Total energy                               :       -76.89032207
 _______________________________________________________________
 Fermi energy                               :         0.29324161
 Kinetic energy                             :        76.35202987
 Coulomb energy                             :      -142.20485345
 Exchange energy                            :       -10.60299823
 Correlation energy                         :        -0.43450025
 
 DOS at Fermi energy (states/Ha/cell)       :         1.01666303
 
 Electron charges :
     core                                   :         4.00000000
     core leakage                           :         0.00132880
     valence                                :         8.00000000
     interstitial                           :         4.28593818
     charge in muffin-tin spheres :
                  atom     1     C          :         3.85703091
                  atom     2     C          :         3.85703091
     total charge in muffin-tins            :         7.71406182
     total charge                           :        12.00000000
 
 Wall time (seconds)                        :        88.18
 
 RMS change in effective potential (target) :  0.951127E-01  ( 0.100000E-05)
 Absolute change in total energy   (target) :  0.401770      ( 0.100000E-06)
 Charge distance                   (target) :  0.933251E-02  ( 0.100000E-04)
 Abs. change in max-nonIBS-force   (target) :   0.00000      ( 0.250000E-05)
 
++++++++++++++++++++++++++++++++++++++++++++++++++++++++++++++++++++++++++++++++
| SCF iteration number :    5                                                  +
++++++++++++++++++++++++++++++++++++++++++++++++++++++++++++++++++++++++++++++++
 Total energy                               :       -75.88618971
 _______________________________________________________________
 Fermi energy                               :         0.31754544
 Kinetic energy                             :        77.00334612
 Coulomb energy                             :      -141.89780824
 Exchange energy                            :       -10.55577039
 Correlation energy                         :        -0.43595719
 
 DOS at Fermi energy (states/Ha/cell)       :         1.14832989
 
 Electron charges :
     core                                   :         4.00000000
     core leakage                           :         0.00135389
     valence                                :         8.00000000
     interstitial                           :         4.36424266
     charge in muffin-tin spheres :
                  atom     1     C          :         3.81787867
                  atom     2     C          :         3.81787867
     total charge in muffin-tins            :         7.63575734
     total charge                           :        12.00000000
 
 Wall time (seconds)                        :       110.08
 
 RMS change in effective potential (target) :  0.362310E-01  ( 0.100000E-05)
 Absolute change in total energy   (target) :   1.00413      ( 0.100000E-06)
 Charge distance                   (target) :  0.151130E-01  ( 0.100000E-04)
 Abs. change in max-nonIBS-force   (target) :   0.00000      ( 0.250000E-05)
 
++++++++++++++++++++++++++++++++++++++++++++++++++++++++++++++++++++++++++++++++
| SCF iteration number :    6                                                  +
++++++++++++++++++++++++++++++++++++++++++++++++++++++++++++++++++++++++++++++++
 Total energy                               :       -76.17374908
 _______________________________________________________________
 Fermi energy                               :         0.31083321
 Kinetic energy                             :        76.81700037
 Coulomb energy                             :      -141.98570702
 Exchange energy                            :       -10.56951209
 Correlation energy                         :        -0.43553035
 
 DOS at Fermi energy (states/Ha/cell)       :         1.10413874
 
 Electron charges :
     core                                   :         4.00000000
     core leakage                           :         0.00134719
     valence                                :         8.00000000
     interstitial                           :         4.34128812
     charge in muffin-tin spheres :
                  atom     1     C          :         3.82935594
                  atom     2     C          :         3.82935594
     total charge in muffin-tins            :         7.65871188
     total charge                           :        12.00000000
 
 Wall time (seconds)                        :       131.98
 
 RMS change in effective potential (target) :  0.117475E-02  ( 0.100000E-05)
 Absolute change in total energy   (target) :  0.287559      ( 0.100000E-06)
 Charge distance                   (target) :  0.448440E-02  ( 0.100000E-04)
 Abs. change in max-nonIBS-force   (target) :   0.00000      ( 0.250000E-05)
 
++++++++++++++++++++++++++++++++++++++++++++++++++++++++++++++++++++++++++++++++
| SCF iteration number :    7                                                  +
++++++++++++++++++++++++++++++++++++++++++++++++++++++++++++++++++++++++++++++++
 Total energy                               :       -76.17073804
 _______________________________________________________________
 Fermi energy                               :         0.31089450
 Kinetic energy                             :        76.81954912
 Coulomb energy                             :      -141.98539022
 Exchange energy                            :       -10.56936495
 Correlation energy                         :        -0.43553199
 
 DOS at Fermi energy (states/Ha/cell)       :         1.10503093
 
 Electron charges :
     core                                   :         4.00000000
     core leakage                           :         0.00134709
     valence                                :         8.00000000
     interstitial                           :         4.34157207
     charge in muffin-tin spheres :
                  atom     1     C          :         3.82921396
                  atom     2     C          :         3.82921396
     total charge in muffin-tins            :         7.65842793
     total charge                           :        12.00000000
 
 Wall time (seconds)                        :       153.94
 
 RMS change in effective potential (target) :  0.246697E-03  ( 0.100000E-05)
 Absolute change in total energy   (target) :  0.301104E-02  ( 0.100000E-06)
 Charge distance                   (target) :  0.789935E-04  ( 0.100000E-04)
 Abs. change in max-nonIBS-force   (target) :   0.00000      ( 0.250000E-05)
 
++++++++++++++++++++++++++++++++++++++++++++++++++++++++++++++++++++++++++++++++
| SCF iteration number :    8                                                  +
++++++++++++++++++++++++++++++++++++++++++++++++++++++++++++++++++++++++++++++++
 Total energy                               :       -76.17258563
 _______________________________________________________________
 Fermi energy                               :         0.31084990
 Kinetic energy                             :        76.81820980
 Coulomb energy                             :      -141.98581729
 Exchange energy                            :       -10.56944823
 Correlation energy                         :        -0.43552990
 
 DOS at Fermi energy (states/Ha/cell)       :         1.10471134
 
 Electron charges :
     core                                   :         4.00000000
     core leakage                           :         0.00134708
     valence                                :         8.00000000
     interstitial                           :         4.34142556
     charge in muffin-tin spheres :
                  atom     1     C          :         3.82928722
                  atom     2     C          :         3.82928722
     total charge in muffin-tins            :         7.65857444
     total charge                           :        12.00000000
 
 Wall time (seconds)                        :       176.09
 
 RMS change in effective potential (target) :  0.406583E-04  ( 0.100000E-05)
 Absolute change in total energy   (target) :  0.184758E-02  ( 0.100000E-06)
 Charge distance                   (target) :  0.312608E-04  ( 0.100000E-04)
 Abs. change in max-nonIBS-force   (target) :   0.00000      ( 0.250000E-05)
 
++++++++++++++++++++++++++++++++++++++++++++++++++++++++++++++++++++++++++++++++
| SCF iteration number :    9                                                  +
++++++++++++++++++++++++++++++++++++++++++++++++++++++++++++++++++++++++++++++++
 Total energy                               :       -76.17250521
 _______________________________________________________________
 Fermi energy                               :         0.31085153
 Kinetic energy                             :        76.81825199
 Coulomb energy                             :      -141.98578295
 Exchange energy                            :       -10.56944421
 Correlation energy                         :        -0.43553005
 
 DOS at Fermi energy (states/Ha/cell)       :         1.10471855
 
 Electron charges :
     core                                   :         4.00000000
     core leakage                           :         0.00134708
     valence                                :         8.00000000
     interstitial                           :         4.34143158
     charge in muffin-tin spheres :
                  atom     1     C          :         3.82928421
                  atom     2     C          :         3.82928421
     total charge in muffin-tins            :         7.65856842
     total charge                           :        12.00000000
 
 Wall time (seconds)                        :       198.04
 
 RMS change in effective potential (target) :  0.182459E-05  ( 0.100000E-05)
 Absolute change in total energy   (target) :  0.804127E-04  ( 0.100000E-06)
 Charge distance                   (target) :  0.110781E-05  ( 0.100000E-04)
 Abs. change in max-nonIBS-force   (target) :   0.00000      ( 0.250000E-05)
 
++++++++++++++++++++++++++++++++++++++++++++++++++++++++++++++++++++++++++++++++
| SCF iteration number :   10                                                  +
++++++++++++++++++++++++++++++++++++++++++++++++++++++++++++++++++++++++++++++++
 Total energy                               :       -76.17250603
 _______________________________________________________________
 Fermi energy                               :         0.31085155
 Kinetic energy                             :        76.81825187
 Coulomb energy                             :      -141.98578359
 Exchange energy                            :       -10.56944427
 Correlation energy                         :        -0.43553005
 
 DOS at Fermi energy (states/Ha/cell)       :         1.10471850
 
 Electron charges :
     core                                   :         4.00000000
     core leakage                           :         0.00134708
     valence                                :         8.00000000
     interstitial                           :         4.34143153
     charge in muffin-tin spheres :
                  atom     1     C          :         3.82928424
                  atom     2     C          :         3.82928424
     total charge in muffin-tins            :         7.65856847
     total charge                           :        12.00000000
 
 Wall time (seconds)                        :       220.03
 
 RMS change in effective potential (target) :  0.356547E-07  ( 0.100000E-05)
 Absolute change in total energy   (target) :  0.815280E-06  ( 0.100000E-06)
 Charge distance                   (target) :  0.107411E-07  ( 0.100000E-04)
 Abs. change in max-nonIBS-force   (target) :   0.00000      ( 0.250000E-05)
 
++++++++++++++++++++++++++++++++++++++++++++++++++++++++++++++++++++++++++++++++
| SCF iteration number :   11                                                  +
++++++++++++++++++++++++++++++++++++++++++++++++++++++++++++++++++++++++++++++++
 Total energy                               :       -76.17250572
 _______________________________________________________________
 Fermi energy                               :         0.31085156
 Kinetic energy                             :        76.81825212
 Coulomb energy                             :      -141.98578353
 Exchange energy                            :       -10.56944425
 Correlation energy                         :        -0.43553005
 
 DOS at Fermi energy (states/Ha/cell)       :         1.10471857
 
 Electron charges :
     core                                   :         4.00000000
     core leakage                           :         0.00134708
     valence                                :         8.00000000
     interstitial                           :         4.34143155
     charge in muffin-tin spheres :
                  atom     1     C          :         3.82928423
                  atom     2     C          :         3.82928423
     total charge in muffin-tins            :         7.65856845
     total charge                           :        12.00000000
 
 Wall time (seconds)                        :       242.18
 
 RMS change in effective potential (target) :  0.271745E-07  ( 0.100000E-05)
 Absolute change in total energy   (target) :  0.311692E-06  ( 0.100000E-06)
 Charge distance                   (target) :  0.715812E-08  ( 0.100000E-04)
 Abs. change in max-nonIBS-force   (target) :   0.00000      ( 0.250000E-05)
 
++++++++++++++++++++++++++++++++++++++++++++++++++++++++++++++++++++++++++++++++
| SCF iteration number :   12                                                  +
++++++++++++++++++++++++++++++++++++++++++++++++++++++++++++++++++++++++++++++++
 Total energy                               :       -76.17250573
 _______________________________________________________________
 Fermi energy                               :         0.31085155
 Kinetic energy                             :        76.81825211
 Coulomb energy                             :      -141.98578354
 Exchange energy                            :       -10.56944425
 Correlation energy                         :        -0.43553005
 
 DOS at Fermi energy (states/Ha/cell)       :         1.10471857
 
 Electron charges :
     core                                   :         4.00000000
     core leakage                           :         0.00134708
     valence                                :         8.00000000
     interstitial                           :         4.34143155
     charge in muffin-tin spheres :
                  atom     1     C          :         3.82928423
                  atom     2     C          :         3.82928423
     total charge in muffin-tins            :         7.65856845
     total charge                           :        12.00000000
 
 Wall time (seconds)                        :       264.37
 
 RMS change in effective potential (target) :  0.106109E-07  ( 0.100000E-05)
 Absolute change in total energy   (target) :  0.106405E-07  ( 0.100000E-06)
 Charge distance                   (target) :  0.168398E-09  ( 0.100000E-04)
 Abs. change in max-nonIBS-force   (target) :   0.00000      ( 0.250000E-05)
 
++++++++++++++++++++++++++++++++++++++++++++++++++++++++++++++++++++++++++++++++
| Convergence targets achieved. Performing final SCF iteration                 +
++++++++++++++++++++++++++++++++++++++++++++++++++++++++++++++++++++++++++++++++
 Total energy                               :       -76.18372281
 _______________________________________________________________
 Fermi energy                               :         0.31085155
 Kinetic energy                             :        76.81825210
 Coulomb energy                             :      -141.98578354
 Exchange energy                            :       -10.56944425
 Correlation energy                         :        -0.43553005
 DFT-D2 dispersion correction               :        -0.01121707
 
 DOS at Fermi energy (states/Ha/cell)       :         1.10471856
 
 Electron charges :
     core                                   :         4.00000000
     core leakage                           :         0.00134708
     valence                                :         8.00000000
     interstitial                           :         4.34143155
     charge in muffin-tin spheres :
                  atom     1     C          :         3.82928423
                  atom     2     C          :         3.82928423
     total charge in muffin-tins            :         7.65856845
     total charge                           :        12.00000000
 
++++++++++++++++++++++++++++++++++++++++++++++++++++++++++++++++++++++++++++++++
| Self-consistent loop stopped                                                 +
++++++++++++++++++++++++++++++++++++++++++++++++++++++++++++++++++++++++++++++++
 STATE.OUT is written
 
--------------------------------------------------------------------------------
| Writing atomic positions and forces                                          -
--------------------------------------------------------------------------------
 
 Atomic positions (lattice) :
 atom     1   C  :     0.00000000    0.00000000    0.00000000
 atom     2   C  :     0.33333333    0.33333333    0.00000000
 
 Total atomic forces including IBS (cartesian) :
 atom     1   C  :     0.00000000    0.00000000    0.00000000
 atom     2   C  :     0.00000000    0.00000000    0.00000000
 
 Atomic force components including IBS (cartesian) :
 atom     1   C  :     0.00000000    0.00000000    0.00000000   HF force
                 :     0.00000000    0.00000000    0.00000000   core correction
                 :     0.00000000    0.00000000    0.00000000   IBS correction
                 :     0.00000000    0.00000000    0.00000000   DFT-D2 force
 atom     2   C  :     0.00000000    0.00000000    0.00000000   HF force
                 :     0.00000000    0.00000000    0.00000000   core correction
                 :     0.00000000    0.00000000    0.00000000   IBS correction
                 :     0.00000000    0.00000000    0.00000000   DFT-D2 force
 
********************************************************************************
| Groundstate module stopped                                                   *
********************************************************************************
 
********************************************************************************
| Structure-optimization module started                                        *
********************************************************************************
 Output level for this task is set to normal
 
 Maximum displacement tau_BFGS   is         :         0.3000
 Maximum displacement tau_newton is         :         0.8000
 Maximum force target reached already at the initial configuration
 
********************************************************************************
| Structure-optimization module stopped                                        *
********************************************************************************
 
 Total time spent (seconds)                 :       305.76
 
================================================================================
| EXCITING BORON stopped                                                       =
================================================================================
