================================================================================
| EXCITING BORON started                                                       =
| version hash id:                                                             =
| MPI version using     16 processor(s)                                        =
|                                                                              =
| Date (DD-MM-YYYY) : 09-08-2015                                               =
| Time (hh:mm:ss)   : 22:20:29                                                 =
|                                                                              =
| All units are atomic (Hartree, Bohr, etc.)                                   =
================================================================================
 
********************************************************************************
| Structural optimisation starting from atomic densities                       *
********************************************************************************
 
++++++++++++++++++++++++++++++++++++++++++++++++++++++++++++++++++++++++++++++++
| Starting initialization                                                      +
++++++++++++++++++++++++++++++++++++++++++++++++++++++++++++++++++++++++++++++++
 
 Lattice vectors (cartesian) :
      2.3270000000      4.0304822292      0.0000000000
     -2.3270000000      4.0304822292      0.0000000000
      0.0000000000      0.0000000000      6.4432377586
 
 Reciprocal lattice vectors (cartesian) :
      1.3500613036      0.7794582571      0.0000000000
     -1.3500613036      0.7794582571      0.0000000000
      0.0000000000      0.0000000000      0.9751596236
 
 Unit cell volume                           :     120.8613794941
 Brillouin zone volume                      :       2.0523529889
 
 Species :    1 (C)
     parameters loaded from                 :    C.xml
     name                                   :    carbon
     nuclear charge                         :      -6.00000000
     electronic charge                      :       6.00000000
     atomic mass                            :   21894.16673000
     muffin-tin radius                      :       1.20000000
     # of radial points in muffin-tin       :     250
 
     atomic positions (lattice) :
       1 :   0.00000000  0.00000000  0.00000000
       2 :   0.33333333  0.33333333  0.00000000
 
 Total number of atoms per unit cell        :       2
 
 Spin treatment                             :    spin-unpolarised
 
 Number of Bravais lattice symmetries       :      24
 Number of crystal symmetries               :      24
 
 k-point grid                               :      34   34   24
 Total number of k-points                   :    1482
 k-point set is reduced with crystal symmetries
 
 R^MT_min * |G+k|_max (rgkmax)              :       8.00000000
 Species with R^MT_min                      :       1 (C)
 Maximum |G+k| for APW functions            :       6.66666667
 Maximum |G| for potential and density      :      20.00000000
 
 G-vector grid sizes                        :      30    30    45
 Total number of G-vectors                  :   16343
 
 Maximum angular momentum used for
     APW functions                          :       8
     computing H and O matrix elements      :       8
     potential and density                  :       8
     inner part of muffin-tin               :       2
 
 Total nuclear charge                       :     -12.00000000
 Total electronic charge                    :      12.00000000
 Total core charge                          :       4.00000000
 Total valence charge                       :       8.00000000
 
 Number of empty states                     :       5
 Total number of valence states             :      10
 
 Maximum Hamiltonian size                   :     632
 Maximum number of plane-waves              :     624
 Total number of local-orbitals             :       8
 
 Exchange-correlation type                  :      20
     Perdew-Burke-Ernzerhof, Phys. Rev. Lett. 77, 3865 (1996)
     Generalised gradient approximation (GGA)
 
 Smearing scheme                            :    Gaussian
 Smearing width                             :       0.01000000
 
 Using multisecant Broyden potential mixing
 
++++++++++++++++++++++++++++++++++++++++++++++++++++++++++++++++++++++++++++++++
| Ending initialization                                                        +
++++++++++++++++++++++++++++++++++++++++++++++++++++++++++++++++++++++++++++++++
 
********************************************************************************
| Groundstate module started                                                   *
********************************************************************************
 Output level for this task is set to normal
 
++++++++++++++++++++++++++++++++++++++++++++++++++++++++++++++++++++++++++++++++
| Self-consistent loop started                                                 +
++++++++++++++++++++++++++++++++++++++++++++++++++++++++++++++++++++++++++++++++
 Density and potential initialised from atomic data
 
 
++++++++++++++++++++++++++++++++++++++++++++++++++++++++++++++++++++++++++++++++
| SCF iteration number :    1                                                  +
++++++++++++++++++++++++++++++++++++++++++++++++++++++++++++++++++++++++++++++++
 Total energy                               :       -78.31981340
 _______________________________________________________________
 Fermi energy                               :         0.17023383
 Kinetic energy                             :        74.53576302
 Coulomb energy                             :      -141.93458069
 Exchange energy                            :       -10.50169364
 Correlation energy                         :        -0.41930209
 
 DOS at Fermi energy (states/Ha/cell)       :         1.05467858
 
 Electron charges :
     core                                   :         4.00000000
     core leakage                           :         0.00128281
     valence                                :         8.00000000
     interstitial                           :         4.53618271
     charge in muffin-tin spheres :
                  atom     1     C          :         3.73190865
                  atom     2     C          :         3.73190865
     total charge in muffin-tins            :         7.46381729
     total charge                           :        12.00000000
 
 Wall time (seconds)                        :        35.85
 
++++++++++++++++++++++++++++++++++++++++++++++++++++++++++++++++++++++++++++++++
| SCF iteration number :    2                                                  +
++++++++++++++++++++++++++++++++++++++++++++++++++++++++++++++++++++++++++++++++
 Total energy                               :       -77.54442369
 _______________________________________________________________
 Fermi energy                               :         0.19160956
 Kinetic energy                             :        75.05871619
 Coulomb energy                             :      -141.71898945
 Exchange energy                            :       -10.46388655
 Correlation energy                         :        -0.42026388
 
 DOS at Fermi energy (states/Ha/cell)       :         1.13095769
 
 Electron charges :
     core                                   :         4.00000000
     core leakage                           :         0.00129516
     valence                                :         8.00000000
     interstitial                           :         4.59949039
     charge in muffin-tin spheres :
                  atom     1     C          :         3.70025481
                  atom     2     C          :         3.70025481
     total charge in muffin-tins            :         7.40050961
     total charge                           :        12.00000000
 
 Wall time (seconds)                        :        70.32
 
 RMS change in effective potential (target) :   1.60859      ( 0.100000E-05)
 Absolute change in total energy   (target) :  0.775390      ( 0.100000E-06)
 Charge distance                   (target) :  0.128721E-01  ( 0.100000E-04)
 Abs. change in max-nonIBS-force   (target) :   0.00000      ( 0.250000E-05)
 
++++++++++++++++++++++++++++++++++++++++++++++++++++++++++++++++++++++++++++++++
| SCF iteration number :    3                                                  +
++++++++++++++++++++++++++++++++++++++++++++++++++++++++++++++++++++++++++++++++
 Total energy                               :       -76.99535759
 _______________________________________________________________
 Fermi energy                               :         0.20619698
 Kinetic energy                             :        75.42580280
 Coulomb energy                             :      -141.56362414
 Exchange energy                            :       -10.43651862
 Correlation energy                         :        -0.42101763
 
 DOS at Fermi energy (states/Ha/cell)       :         1.19527392
 
 Electron charges :
     core                                   :         4.00000000
     core leakage                           :         0.00130311
     valence                                :         8.00000000
     interstitial                           :         4.64561281
     charge in muffin-tin spheres :
                  atom     1     C          :         3.67719359
                  atom     2     C          :         3.67719359
     total charge in muffin-tins            :         7.35438719
     total charge                           :        12.00000000
 
 Wall time (seconds)                        :       105.87
 
 RMS change in effective potential (target) :   1.18709      ( 0.100000E-05)
 Absolute change in total energy   (target) :  0.549066      ( 0.100000E-06)
 Charge distance                   (target) :  0.948816E-02  ( 0.100000E-04)
 Abs. change in max-nonIBS-force   (target) :   0.00000      ( 0.250000E-05)
 
++++++++++++++++++++++++++++++++++++++++++++++++++++++++++++++++++++++++++++++++
| SCF iteration number :    4                                                  +
++++++++++++++++++++++++++++++++++++++++++++++++++++++++++++++++++++++++++++++++
 Total energy                               :       -76.74937206
 _______________________________________________________________
 Fermi energy                               :         0.21208316
 Kinetic energy                             :        75.60473111
 Coulomb energy                             :      -141.51134107
 Exchange energy                            :       -10.42124353
 Correlation energy                         :        -0.42151858
 
 DOS at Fermi energy (states/Ha/cell)       :         1.24140295
 
 Electron charges :
     core                                   :         4.00000000
     core leakage                           :         0.00129549
     valence                                :         8.00000000
     interstitial                           :         4.67585041
     charge in muffin-tin spheres :
                  atom     1     C          :         3.66207479
                  atom     2     C          :         3.66207479
     total charge in muffin-tins            :         7.32414959
     total charge                           :        12.00000000
 
 Wall time (seconds)                        :       140.66
 
 RMS change in effective potential (target) :  0.668045E-01  ( 0.100000E-05)
 Absolute change in total energy   (target) :  0.245986      ( 0.100000E-06)
 Charge distance                   (target) :  0.675114E-02  ( 0.100000E-04)
 Abs. change in max-nonIBS-force   (target) :   0.00000      ( 0.250000E-05)
 
++++++++++++++++++++++++++++++++++++++++++++++++++++++++++++++++++++++++++++++++
| SCF iteration number :    5                                                  +
++++++++++++++++++++++++++++++++++++++++++++++++++++++++++++++++++++++++++++++++
 Total energy                               :       -75.94118115
 _______________________________________________________________
 Fermi energy                               :         0.23259001
 Kinetic energy                             :        76.12169990
 Coulomb energy                             :      -141.25822715
 Exchange energy                            :       -10.38197705
 Correlation energy                         :        -0.42267684
 
 DOS at Fermi energy (states/Ha/cell)       :         1.35282398
 
 Electron charges :
     core                                   :         4.00000000
     core leakage                           :         0.00131512
     valence                                :         8.00000000
     interstitial                           :         4.73923506
     charge in muffin-tin spheres :
                  atom     1     C          :         3.63038247
                  atom     2     C          :         3.63038247
     total charge in muffin-tins            :         7.26076494
     total charge                           :        12.00000000
 
 Wall time (seconds)                        :       176.08
 
 RMS change in effective potential (target) :  0.330467E-01  ( 0.100000E-05)
 Absolute change in total energy   (target) :  0.808191      ( 0.100000E-06)
 Charge distance                   (target) :  0.128914E-01  ( 0.100000E-04)
 Abs. change in max-nonIBS-force   (target) :   0.00000      ( 0.250000E-05)
 
++++++++++++++++++++++++++++++++++++++++++++++++++++++++++++++++++++++++++++++++
| SCF iteration number :    6                                                  +
++++++++++++++++++++++++++++++++++++++++++++++++++++++++++++++++++++++++++++++++
 Total energy                               :       -76.20523400
 _______________________________________________________________
 Fermi energy                               :         0.22603856
 Kinetic energy                             :        75.95327404
 Coulomb energy                             :      -141.34127830
 Exchange energy                            :       -10.39494031
 Correlation energy                         :        -0.42228944
 
 DOS at Fermi energy (states/Ha/cell)       :         1.31332731
 
 Electron charges :
     core                                   :         4.00000000
     core leakage                           :         0.00130892
     valence                                :         8.00000000
     interstitial                           :         4.71825818
     charge in muffin-tin spheres :
                  atom     1     C          :         3.64087091
                  atom     2     C          :         3.64087091
     total charge in muffin-tins            :         7.28174182
     total charge                           :        12.00000000
 
 Wall time (seconds)                        :       210.70
 
 RMS change in effective potential (target) :  0.653237E-03  ( 0.100000E-05)
 Absolute change in total energy   (target) :  0.264053      ( 0.100000E-06)
 Charge distance                   (target) :  0.430422E-02  ( 0.100000E-04)
 Abs. change in max-nonIBS-force   (target) :   0.00000      ( 0.250000E-05)
 
++++++++++++++++++++++++++++++++++++++++++++++++++++++++++++++++++++++++++++++++
| SCF iteration number :    7                                                  +
++++++++++++++++++++++++++++++++++++++++++++++++++++++++++++++++++++++++++++++++
 Total energy                               :       -76.20610284
 _______________________________________________________________
 Fermi energy                               :         0.22601085
 Kinetic energy                             :        75.95300076
 Coulomb energy                             :      -141.34184002
 Exchange energy                            :       -10.39497677
 Correlation energy                         :        -0.42228681
 
 DOS at Fermi energy (states/Ha/cell)       :         1.31345090
 
 Electron charges :
     core                                   :         4.00000000
     core leakage                           :         0.00130881
     valence                                :         8.00000000
     interstitial                           :         4.71821438
     charge in muffin-tin spheres :
                  atom     1     C          :         3.64089281
                  atom     2     C          :         3.64089281
     total charge in muffin-tins            :         7.28178562
     total charge                           :        12.00000000
 
 Wall time (seconds)                        :       245.15
 
 RMS change in effective potential (target) :  0.158560E-03  ( 0.100000E-05)
 Absolute change in total energy   (target) :  0.868841E-03  ( 0.100000E-06)
 Charge distance                   (target) :  0.190093E-04  ( 0.100000E-04)
 Abs. change in max-nonIBS-force   (target) :   0.00000      ( 0.250000E-05)
 
++++++++++++++++++++++++++++++++++++++++++++++++++++++++++++++++++++++++++++++++
| SCF iteration number :    8                                                  +
++++++++++++++++++++++++++++++++++++++++++++++++++++++++++++++++++++++++++++++++
 Total energy                               :       -76.20679428
 _______________________________________________________________
 Fermi energy                               :         0.22599310
 Kinetic energy                             :        75.95248202
 Coulomb energy                             :      -141.34198143
 Exchange energy                            :       -10.39500874
 Correlation energy                         :        -0.42228613
 
 DOS at Fermi energy (states/Ha/cell)       :         1.31331574
 
 Electron charges :
     core                                   :         4.00000000
     core leakage                           :         0.00130881
     valence                                :         8.00000000
     interstitial                           :         4.71815890
     charge in muffin-tin spheres :
                  atom     1     C          :         3.64092055
                  atom     2     C          :         3.64092055
     total charge in muffin-tins            :         7.28184110
     total charge                           :        12.00000000
 
 Wall time (seconds)                        :       279.50
 
 RMS change in effective potential (target) :  0.238588E-04  ( 0.100000E-05)
 Absolute change in total energy   (target) :  0.691432E-03  ( 0.100000E-06)
 Charge distance                   (target) :  0.132090E-04  ( 0.100000E-04)
 Abs. change in max-nonIBS-force   (target) :   0.00000      ( 0.250000E-05)
 
++++++++++++++++++++++++++++++++++++++++++++++++++++++++++++++++++++++++++++++++
| SCF iteration number :    9                                                  +
++++++++++++++++++++++++++++++++++++++++++++++++++++++++++++++++++++++++++++++++
 Total energy                               :       -76.20668137
 _______________________________________________________________
 Fermi energy                               :         0.22599584
 Kinetic energy                             :        75.95255041
 Coulomb energy                             :      -141.34194226
 Exchange energy                            :       -10.39500320
 Correlation energy                         :        -0.42228631
 
 DOS at Fermi energy (states/Ha/cell)       :         1.31332960
 
 Electron charges :
     core                                   :         4.00000000
     core leakage                           :         0.00130881
     valence                                :         8.00000000
     interstitial                           :         4.71816763
     charge in muffin-tin spheres :
                  atom     1     C          :         3.64091618
                  atom     2     C          :         3.64091618
     total charge in muffin-tins            :         7.28183237
     total charge                           :        12.00000000
 
 Wall time (seconds)                        :       313.94
 
 RMS change in effective potential (target) :  0.149994E-05  ( 0.100000E-05)
 Absolute change in total energy   (target) :  0.112908E-03  ( 0.100000E-06)
 Charge distance                   (target) :  0.172864E-05  ( 0.100000E-04)
 Abs. change in max-nonIBS-force   (target) :   0.00000      ( 0.250000E-05)
 
++++++++++++++++++++++++++++++++++++++++++++++++++++++++++++++++++++++++++++++++
| SCF iteration number :   10                                                  +
++++++++++++++++++++++++++++++++++++++++++++++++++++++++++++++++++++++++++++++++
 Total energy                               :       -76.20668165
 _______________________________________________________________
 Fermi energy                               :         0.22599585
 Kinetic energy                             :        75.95255071
 Coulomb energy                             :      -141.34194281
 Exchange energy                            :       -10.39500323
 Correlation energy                         :        -0.42228631
 
 DOS at Fermi energy (states/Ha/cell)       :         1.31332971
 
 Electron charges :
     core                                   :         4.00000000
     core leakage                           :         0.00130881
     valence                                :         8.00000000
     interstitial                           :         4.71816761
     charge in muffin-tin spheres :
                  atom     1     C          :         3.64091619
                  atom     2     C          :         3.64091619
     total charge in muffin-tins            :         7.28183239
     total charge                           :        12.00000000
 
 Wall time (seconds)                        :       348.33
 
 RMS change in effective potential (target) :  0.284314E-07  ( 0.100000E-05)
 Absolute change in total energy   (target) :  0.280713E-06  ( 0.100000E-06)
 Charge distance                   (target) :  0.151518E-07  ( 0.100000E-04)
 Abs. change in max-nonIBS-force   (target) :   0.00000      ( 0.250000E-05)
 
++++++++++++++++++++++++++++++++++++++++++++++++++++++++++++++++++++++++++++++++
| SCF iteration number :   11                                                  +
++++++++++++++++++++++++++++++++++++++++++++++++++++++++++++++++++++++++++++++++
 Total energy                               :       -76.20668163
 _______________________________________________________________
 Fermi energy                               :         0.22599585
 Kinetic energy                             :        75.95255072
 Coulomb energy                             :      -141.34194281
 Exchange energy                            :       -10.39500323
 Correlation energy                         :        -0.42228631
 
 DOS at Fermi energy (states/Ha/cell)       :         1.31332972
 
 Electron charges :
     core                                   :         4.00000000
     core leakage                           :         0.00130881
     valence                                :         8.00000000
     interstitial                           :         4.71816761
     charge in muffin-tin spheres :
                  atom     1     C          :         3.64091619
                  atom     2     C          :         3.64091619
     total charge in muffin-tins            :         7.28183239
     total charge                           :        12.00000000
 
 Wall time (seconds)                        :       382.77
 
 RMS change in effective potential (target) :  0.203026E-07  ( 0.100000E-05)
 Absolute change in total energy   (target) :  0.214156E-07  ( 0.100000E-06)
 Charge distance                   (target) :  0.102695E-08  ( 0.100000E-04)
 Abs. change in max-nonIBS-force   (target) :   0.00000      ( 0.250000E-05)
 
++++++++++++++++++++++++++++++++++++++++++++++++++++++++++++++++++++++++++++++++
| Convergence targets achieved. Performing final SCF iteration                 +
++++++++++++++++++++++++++++++++++++++++++++++++++++++++++++++++++++++++++++++++
 Total energy                               :       -76.21543037
 _______________________________________________________________
 Fermi energy                               :         0.22599585
 Kinetic energy                             :        75.95255072
 Coulomb energy                             :      -141.34194281
 Exchange energy                            :       -10.39500323
 Correlation energy                         :        -0.42228631
 DFT-D2 dispersion correction               :        -0.00874874
 
 DOS at Fermi energy (states/Ha/cell)       :         1.31332972
 
 Electron charges :
     core                                   :         4.00000000
     core leakage                           :         0.00130881
     valence                                :         8.00000000
     interstitial                           :         4.71816761
     charge in muffin-tin spheres :
                  atom     1     C          :         3.64091619
                  atom     2     C          :         3.64091619
     total charge in muffin-tins            :         7.28183239
     total charge                           :        12.00000000
 
++++++++++++++++++++++++++++++++++++++++++++++++++++++++++++++++++++++++++++++++
| Self-consistent loop stopped                                                 +
++++++++++++++++++++++++++++++++++++++++++++++++++++++++++++++++++++++++++++++++
 STATE.OUT is written
 
--------------------------------------------------------------------------------
| Writing atomic positions and forces                                          -
--------------------------------------------------------------------------------
 
 Atomic positions (lattice) :
 atom     1   C  :     0.00000000    0.00000000    0.00000000
 atom     2   C  :     0.33333333    0.33333333    0.00000000
 
 Total atomic forces including IBS (cartesian) :
 atom     1   C  :     0.00000000    0.00000000    0.00000000
 atom     2   C  :     0.00000000    0.00000000    0.00000000
 
 Atomic force components including IBS (cartesian) :
 atom     1   C  :     0.00000000    0.00000000    0.00000000   HF force
                 :     0.00000000    0.00000000    0.00000000   core correction
                 :     0.00000000    0.00000000    0.00000000   IBS correction
                 :     0.00000000    0.00000000    0.00000000   DFT-D2 force
 atom     2   C  :     0.00000000    0.00000000    0.00000000   HF force
                 :     0.00000000    0.00000000    0.00000000   core correction
                 :     0.00000000    0.00000000    0.00000000   IBS correction
                 :     0.00000000    0.00000000    0.00000000   DFT-D2 force
 
********************************************************************************
| Groundstate module stopped                                                   *
********************************************************************************
 
********************************************************************************
| Structure-optimization module started                                        *
********************************************************************************
 Output level for this task is set to normal
 
 Maximum displacement tau_BFGS   is         :         0.3000
 Maximum displacement tau_newton is         :         0.8000
 Maximum force target reached already at the initial configuration
 
********************************************************************************
| Structure-optimization module stopped                                        *
********************************************************************************
 
 Total time spent (seconds)                 :       447.53
 
================================================================================
| EXCITING BORON stopped                                                       =
================================================================================
