================================================================================
| EXCITING BORON started                                                       =
| version hash id:                                                             =
| MPI version using     16 processor(s)                                        =
|                                                                              =
| Date (DD-MM-YYYY) : 13-08-2015                                               =
| Time (hh:mm:ss)   : 01:14:32                                                 =
|                                                                              =
| All units are atomic (Hartree, Bohr, etc.)                                   =
================================================================================
 
********************************************************************************
| Structural optimisation starting from atomic densities                       *
********************************************************************************
 
++++++++++++++++++++++++++++++++++++++++++++++++++++++++++++++++++++++++++++++++
| Starting initialization                                                      +
++++++++++++++++++++++++++++++++++++++++++++++++++++++++++++++++++++++++++++++++
 
 Lattice vectors (cartesian) :
      2.3270000000      4.2226149929      0.1969475106
     -2.3270000000      4.2226149929      0.1969475106
      0.0000000000      0.3213379553      6.5682462981
 
 Reciprocal lattice vectors (cartesian) :
      1.3500613036      0.7456937481     -0.0364815346
     -1.3500613036      0.7456937481     -0.0364815346
      0.0000000000     -0.0447189465      0.9587879194
 
 Unit cell volume                           :     128.7849694748
 Brillouin zone volume                      :       1.9260804615
 
 Species :    1 (C)
     parameters loaded from                 :    C.xml
     name                                   :    carbon
     nuclear charge                         :      -6.00000000
     electronic charge                      :       6.00000000
     atomic mass                            :   21894.16673000
     muffin-tin radius                      :       1.20000000
     # of radial points in muffin-tin       :     250
 
     atomic positions (lattice) :
       1 :   0.00000000  0.00000000  0.00000000
       2 :   0.33333333  0.33333333  0.00000000
 
 Total number of atoms per unit cell        :       2
 
 Spin treatment                             :    spin-unpolarised
 
 Number of Bravais lattice symmetries       :       4
 Number of crystal symmetries               :       4
 
 k-point grid                               :      34   34   24
 Total number of k-points                   :    7159
 k-point set is reduced with crystal symmetries
 
 R^MT_min * |G+k|_max (rgkmax)              :       8.00000000
 Species with R^MT_min                      :       1 (C)
 Maximum |G+k| for APW functions            :       6.66666667
 Maximum |G| for potential and density      :      20.00000000
 
 G-vector grid sizes                        :      32    32    45
 Total number of G-vectors                  :   17373
 
 Maximum angular momentum used for
     APW functions                          :       8
     computing H and O matrix elements      :       8
     potential and density                  :       8
     inner part of muffin-tin               :       2
 
 Total nuclear charge                       :     -12.00000000
 Total electronic charge                    :      12.00000000
 Total core charge                          :       4.00000000
 Total valence charge                       :       8.00000000
 
 Number of empty states                     :       5
 Total number of valence states             :      10
 
 Maximum Hamiltonian size                   :     669
 Maximum number of plane-waves              :     661
 Total number of local-orbitals             :       8
 
 Exchange-correlation type                  :      20
     Perdew-Burke-Ernzerhof, Phys. Rev. Lett. 77, 3865 (1996)
     Generalised gradient approximation (GGA)
 
 Smearing scheme                            :    Gaussian
 Smearing width                             :       0.01000000
 
 Using multisecant Broyden potential mixing
 
++++++++++++++++++++++++++++++++++++++++++++++++++++++++++++++++++++++++++++++++
| Ending initialization                                                        +
++++++++++++++++++++++++++++++++++++++++++++++++++++++++++++++++++++++++++++++++
 
********************************************************************************
| Groundstate module started                                                   *
********************************************************************************
 Output level for this task is set to normal
 
++++++++++++++++++++++++++++++++++++++++++++++++++++++++++++++++++++++++++++++++
| Self-consistent loop started                                                 +
++++++++++++++++++++++++++++++++++++++++++++++++++++++++++++++++++++++++++++++++
 Density and potential initialised from atomic data
 
 
++++++++++++++++++++++++++++++++++++++++++++++++++++++++++++++++++++++++++++++++
| SCF iteration number :    1                                                  +
++++++++++++++++++++++++++++++++++++++++++++++++++++++++++++++++++++++++++++++++
 Total energy                               :       -78.07777523
 _______________________________________________________________
 Fermi energy                               :         0.15236087
 Kinetic energy                             :        74.47530715
 Coulomb energy                             :      -141.69661309
 Exchange energy                            :       -10.44093037
 Correlation energy                         :        -0.41553891
 
 DOS at Fermi energy (states/Ha/cell)       :         1.11349904
 
 Electron charges :
     core                                   :         4.00000000
     core leakage                           :         0.00127807
     valence                                :         8.00000000
     interstitial                           :         4.65369135
     charge in muffin-tin spheres :
                  atom     1     C          :         3.67315432
                  atom     2     C          :         3.67315432
     total charge in muffin-tins            :         7.34630865
     total charge                           :        12.00000000
 
 Wall time (seconds)                        :       191.87
 
++++++++++++++++++++++++++++++++++++++++++++++++++++++++++++++++++++++++++++++++
| SCF iteration number :    2                                                  +
++++++++++++++++++++++++++++++++++++++++++++++++++++++++++++++++++++++++++++++++
 Total energy                               :       -77.38657604
 _______________________________________________________________
 Fermi energy                               :         0.17159518
 Kinetic energy                             :        74.93912734
 Coulomb energy                             :      -141.50261022
 Exchange energy                            :       -10.40669224
 Correlation energy                         :        -0.41640092
 
 DOS at Fermi energy (states/Ha/cell)       :         1.18348767
 
 Electron charges :
     core                                   :         4.00000000
     core leakage                           :         0.00128854
     valence                                :         8.00000000
     interstitial                           :         4.71074543
     charge in muffin-tin spheres :
                  atom     1     C          :         3.64462729
                  atom     2     C          :         3.64462729
     total charge in muffin-tins            :         7.28925457
     total charge                           :        12.00000000
 
 Wall time (seconds)                        :       381.09
 
 RMS change in effective potential (target) :   1.54653      ( 0.100000E-05)
 Absolute change in total energy   (target) :  0.691199      ( 0.100000E-06)
 Charge distance                   (target) :  0.118333E-01  ( 0.100000E-04)
 Abs. change in max-nonIBS-force   (target) :  0.501770E-01  ( 0.250000E-05)
 
++++++++++++++++++++++++++++++++++++++++++++++++++++++++++++++++++++++++++++++++
| SCF iteration number :    3                                                  +
++++++++++++++++++++++++++++++++++++++++++++++++++++++++++++++++++++++++++++++++
 Total energy                               :       -76.89870720
 _______________________________________________________________
 Fermi energy                               :         0.18473318
 Kinetic energy                             :        75.26399295
 Coulomb energy                             :      -141.36361293
 Exchange energy                            :       -10.38201674
 Correlation energy                         :        -0.41707048
 
 DOS at Fermi energy (states/Ha/cell)       :         1.23830302
 
 Electron charges :
     core                                   :         4.00000000
     core leakage                           :         0.00129516
     valence                                :         8.00000000
     interstitial                           :         4.75210130
     charge in muffin-tin spheres :
                  atom     1     C          :         3.62394935
                  atom     2     C          :         3.62394935
     total charge in muffin-tins            :         7.24789870
     total charge                           :        12.00000000
 
 Wall time (seconds)                        :       570.37
 
 RMS change in effective potential (target) :   1.13983      ( 0.100000E-05)
 Absolute change in total energy   (target) :  0.487869      ( 0.100000E-06)
 Charge distance                   (target) :  0.867980E-02  ( 0.100000E-04)
 Abs. change in max-nonIBS-force   (target) :  0.203155E-01  ( 0.250000E-05)
 
++++++++++++++++++++++++++++++++++++++++++++++++++++++++++++++++++++++++++++++++
| SCF iteration number :    4                                                  +
++++++++++++++++++++++++++++++++++++++++++++++++++++++++++++++++++++++++++++++++
 Total energy                               :       -76.68993504
 _______________________________________________________________
 Fermi energy                               :         0.18994008
 Kinetic energy                             :        75.41784313
 Coulomb energy                             :      -141.32151615
 Exchange energy                            :       -10.36876695
 Correlation energy                         :        -0.41749507
 
 DOS at Fermi energy (states/Ha/cell)       :         1.27442148
 
 Electron charges :
     core                                   :         4.00000000
     core leakage                           :         0.00128726
     valence                                :         8.00000000
     interstitial                           :         4.77832203
     charge in muffin-tin spheres :
                  atom     1     C          :         3.61083899
                  atom     2     C          :         3.61083899
     total charge in muffin-tins            :         7.22167797
     total charge                           :        12.00000000
 
 Wall time (seconds)                        :       759.49
 
 RMS change in effective potential (target) :  0.573952E-01  ( 0.100000E-05)
 Absolute change in total energy   (target) :  0.208772      ( 0.100000E-06)
 Charge distance                   (target) :  0.606936E-02  ( 0.100000E-04)
 Abs. change in max-nonIBS-force   (target) :  0.243527E-01  ( 0.250000E-05)
 
++++++++++++++++++++++++++++++++++++++++++++++++++++++++++++++++++++++++++++++++
| SCF iteration number :    5                                                  +
++++++++++++++++++++++++++++++++++++++++++++++++++++++++++++++++++++++++++++++++
 Total energy                               :       -75.95174061
 _______________________________________________________________
 Fermi energy                               :         0.20894887
 Kinetic energy                             :        75.88706588
 Coulomb energy                             :      -141.08784857
 Exchange energy                            :       -10.33240942
 Correlation energy                         :        -0.41854851
 
 DOS at Fermi energy (states/Ha/cell)       :         1.35977148
 
 Electron charges :
     core                                   :         4.00000000
     core leakage                           :         0.00130503
     valence                                :         8.00000000
     interstitial                           :         4.83661449
     charge in muffin-tin spheres :
                  atom     1     C          :         3.58169276
                  atom     2     C          :         3.58169276
     total charge in muffin-tins            :         7.16338551
     total charge                           :        12.00000000
 
 Wall time (seconds)                        :       948.34
 
 RMS change in effective potential (target) :  0.303141E-01  ( 0.100000E-05)
 Absolute change in total energy   (target) :  0.738194      ( 0.100000E-06)
 Charge distance                   (target) :  0.120382E-01  ( 0.100000E-04)
 Abs. change in max-nonIBS-force   (target) :  0.626928E-02  ( 0.250000E-05)
 
++++++++++++++++++++++++++++++++++++++++++++++++++++++++++++++++++++++++++++++++
| SCF iteration number :    6                                                  +
++++++++++++++++++++++++++++++++++++++++++++++++++++++++++++++++++++++++++++++++
 Total energy                               :       -76.20062949
 _______________________________________________________________
 Fermi energy                               :         0.20266498
 Kinetic energy                             :        75.72943458
 Coulomb energy                             :      -141.16709483
 Exchange energy                            :       -10.34478437
 Correlation energy                         :        -0.41818488
 
 DOS at Fermi energy (states/Ha/cell)       :         1.32949235
 
 Electron charges :
     core                                   :         4.00000000
     core leakage                           :         0.00129918
     valence                                :         8.00000000
     interstitial                           :         4.81674869
     charge in muffin-tin spheres :
                  atom     1     C          :         3.59162566
                  atom     2     C          :         3.59162566
     total charge in muffin-tins            :         7.18325131
     total charge                           :        12.00000000
 
 Wall time (seconds)                        :      1137.54
 
 RMS change in effective potential (target) :  0.506369E-03  ( 0.100000E-05)
 Absolute change in total energy   (target) :  0.248889      ( 0.100000E-06)
 Charge distance                   (target) :  0.413441E-02  ( 0.100000E-04)
 Abs. change in max-nonIBS-force   (target) :  0.778905E-02  ( 0.250000E-05)
 
++++++++++++++++++++++++++++++++++++++++++++++++++++++++++++++++++++++++++++++++
| SCF iteration number :    7                                                  +
++++++++++++++++++++++++++++++++++++++++++++++++++++++++++++++++++++++++++++++++
 Total energy                               :       -76.20235219
 _______________________________________________________________
 Fermi energy                               :         0.20261629
 Kinetic energy                             :        75.72853602
 Coulomb energy                             :      -141.16784310
 Exchange energy                            :       -10.34486371
 Correlation energy                         :        -0.41818140
 
 DOS at Fermi energy (states/Ha/cell)       :         1.32945216
 
 Electron charges :
     core                                   :         4.00000000
     core leakage                           :         0.00129908
     valence                                :         8.00000000
     interstitial                           :         4.81663070
     charge in muffin-tin spheres :
                  atom     1     C          :         3.59168465
                  atom     2     C          :         3.59168465
     total charge in muffin-tins            :         7.18336930
     total charge                           :        12.00000000
 
 Wall time (seconds)                        :      1326.38
 
 RMS change in effective potential (target) :  0.121681E-03  ( 0.100000E-05)
 Absolute change in total energy   (target) :  0.172270E-02  ( 0.100000E-06)
 Charge distance                   (target) :  0.236522E-04  ( 0.100000E-04)
 Abs. change in max-nonIBS-force   (target) :  0.101141E-03  ( 0.250000E-05)
 
++++++++++++++++++++++++++++++++++++++++++++++++++++++++++++++++++++++++++++++++
| SCF iteration number :    8                                                  +
++++++++++++++++++++++++++++++++++++++++++++++++++++++++++++++++++++++++++++++++
 Total energy                               :       -76.20276573
 _______________________________________________________________
 Fermi energy                               :         0.20260537
 Kinetic energy                             :        75.72821313
 Coulomb energy                             :      -141.16791511
 Exchange energy                            :       -10.34488269
 Correlation energy                         :        -0.41818105
 
 DOS at Fermi energy (states/Ha/cell)       :         1.32937596
 
 Electron charges :
     core                                   :         4.00000000
     core leakage                           :         0.00129908
     valence                                :         8.00000000
     interstitial                           :         4.81659747
     charge in muffin-tin spheres :
                  atom     1     C          :         3.59170127
                  atom     2     C          :         3.59170127
     total charge in muffin-tins            :         7.18340253
     total charge                           :        12.00000000
 
 Wall time (seconds)                        :      1516.23
 
 RMS change in effective potential (target) :  0.115081E-04  ( 0.100000E-05)
 Absolute change in total energy   (target) :  0.413539E-03  ( 0.100000E-06)
 Charge distance                   (target) :  0.867357E-05  ( 0.100000E-04)
 Abs. change in max-nonIBS-force   (target) :  0.185852E-04  ( 0.250000E-05)
 
++++++++++++++++++++++++++++++++++++++++++++++++++++++++++++++++++++++++++++++++
| SCF iteration number :    9                                                  +
++++++++++++++++++++++++++++++++++++++++++++++++++++++++++++++++++++++++++++++++
 Total energy                               :       -76.20263060
 _______________________________________________________________
 Fermi energy                               :         0.20260876
 Kinetic energy                             :        75.72830097
 Coulomb energy                             :      -141.16787419
 Exchange energy                            :       -10.34487614
 Correlation energy                         :        -0.41818124
 
 DOS at Fermi energy (states/Ha/cell)       :         1.32939308
 
 Electron charges :
     core                                   :         4.00000000
     core leakage                           :         0.00129908
     valence                                :         8.00000000
     interstitial                           :         4.81660806
     charge in muffin-tin spheres :
                  atom     1     C          :         3.59169597
                  atom     2     C          :         3.59169597
     total charge in muffin-tins            :         7.18339194
     total charge                           :        12.00000000
 
 Wall time (seconds)                        :      1705.89
 
 RMS change in effective potential (target) :  0.154603E-05  ( 0.100000E-05)
 Absolute change in total energy   (target) :  0.135128E-03  ( 0.100000E-06)
 Charge distance                   (target) :  0.226032E-05  ( 0.100000E-04)
 Abs. change in max-nonIBS-force   (target) :  0.310680E-05  ( 0.250000E-05)
 
++++++++++++++++++++++++++++++++++++++++++++++++++++++++++++++++++++++++++++++++
| SCF iteration number :   10                                                  +
++++++++++++++++++++++++++++++++++++++++++++++++++++++++++++++++++++++++++++++++
 Total energy                               :       -76.20263022
 _______________________________________________________________
 Fermi energy                               :         0.20260879
 Kinetic energy                             :        75.72830167
 Coulomb energy                             :      -141.16787453
 Exchange energy                            :       -10.34487612
 Correlation energy                         :        -0.41818124
 
 DOS at Fermi energy (states/Ha/cell)       :         1.32939304
 
 Electron charges :
     core                                   :         4.00000000
     core leakage                           :         0.00129908
     valence                                :         8.00000000
     interstitial                           :         4.81660812
     charge in muffin-tin spheres :
                  atom     1     C          :         3.59169594
                  atom     2     C          :         3.59169594
     total charge in muffin-tins            :         7.18339188
     total charge                           :        12.00000000
 
 Wall time (seconds)                        :      1895.18
 
 RMS change in effective potential (target) :  0.133678E-06  ( 0.100000E-05)
 Absolute change in total energy   (target) :  0.383627E-06  ( 0.100000E-06)
 Charge distance                   (target) :  0.208384E-06  ( 0.100000E-04)
 Abs. change in max-nonIBS-force   (target) :  0.270656E-05  ( 0.250000E-05)
 
++++++++++++++++++++++++++++++++++++++++++++++++++++++++++++++++++++++++++++++++
| SCF iteration number :   11                                                  +
++++++++++++++++++++++++++++++++++++++++++++++++++++++++++++++++++++++++++++++++
 Total energy                               :       -76.20263037
 _______________________________________________________________
 Fermi energy                               :         0.20260878
 Kinetic energy                             :        75.72830161
 Coulomb energy                             :      -141.16787461
 Exchange energy                            :       -10.34487613
 Correlation energy                         :        -0.41818124
 
 DOS at Fermi energy (states/Ha/cell)       :         1.32939308
 
 Electron charges :
     core                                   :         4.00000000
     core leakage                           :         0.00129908
     valence                                :         8.00000000
     interstitial                           :         4.81660810
     charge in muffin-tin spheres :
                  atom     1     C          :         3.59169595
                  atom     2     C          :         3.59169595
     total charge in muffin-tins            :         7.18339190
     total charge                           :        12.00000000
 
 Wall time (seconds)                        :      2083.93
 
 RMS change in effective potential (target) :  0.116313E-07  ( 0.100000E-05)
 Absolute change in total energy   (target) :  0.150968E-06  ( 0.100000E-06)
 Charge distance                   (target) :  0.453430E-07  ( 0.100000E-04)
 Abs. change in max-nonIBS-force   (target) :  0.745762E-06  ( 0.250000E-05)
 
++++++++++++++++++++++++++++++++++++++++++++++++++++++++++++++++++++++++++++++++
| SCF iteration number :   12                                                  +
++++++++++++++++++++++++++++++++++++++++++++++++++++++++++++++++++++++++++++++++
 Total energy                               :       -76.20263040
 _______________________________________________________________
 Fermi energy                               :         0.20260878
 Kinetic energy                             :        75.72830159
 Coulomb energy                             :      -141.16787463
 Exchange energy                            :       -10.34487613
 Correlation energy                         :        -0.41818124
 
 DOS at Fermi energy (states/Ha/cell)       :         1.32939308
 
 Electron charges :
     core                                   :         4.00000000
     core leakage                           :         0.00129908
     valence                                :         8.00000000
     interstitial                           :         4.81660810
     charge in muffin-tin spheres :
                  atom     1     C          :         3.59169595
                  atom     2     C          :         3.59169595
     total charge in muffin-tins            :         7.18339190
     total charge                           :        12.00000000
 
 Wall time (seconds)                        :      2272.91
 
 RMS change in effective potential (target) :  0.899602E-08  ( 0.100000E-05)
 Absolute change in total energy   (target) :  0.358062E-07  ( 0.100000E-06)
 Charge distance                   (target) :  0.609998E-09  ( 0.100000E-04)
 Abs. change in max-nonIBS-force   (target) :  0.594412E-08  ( 0.250000E-05)
 
++++++++++++++++++++++++++++++++++++++++++++++++++++++++++++++++++++++++++++++++
| Convergence targets achieved. Performing final SCF iteration                 +
++++++++++++++++++++++++++++++++++++++++++++++++++++++++++++++++++++++++++++++++
 Total energy                               :       -76.21090181
 _______________________________________________________________
 Fermi energy                               :         0.20260878
 Kinetic energy                             :        75.72830159
 Coulomb energy                             :      -141.16787463
 Exchange energy                            :       -10.34487613
 Correlation energy                         :        -0.41818124
 DFT-D2 dispersion correction               :        -0.00827140
 
 DOS at Fermi energy (states/Ha/cell)       :         1.32939308
 
 Electron charges :
     core                                   :         4.00000000
     core leakage                           :         0.00129908
     valence                                :         8.00000000
     interstitial                           :         4.81660810
     charge in muffin-tin spheres :
                  atom     1     C          :         3.59169595
                  atom     2     C          :         3.59169595
     total charge in muffin-tins            :         7.18339190
     total charge                           :        12.00000000
 
++++++++++++++++++++++++++++++++++++++++++++++++++++++++++++++++++++++++++++++++
| Self-consistent loop stopped                                                 +
++++++++++++++++++++++++++++++++++++++++++++++++++++++++++++++++++++++++++++++++
 STATE.OUT is written
 
--------------------------------------------------------------------------------
| Writing atomic positions and forces                                          -
--------------------------------------------------------------------------------
 
 Atomic positions (lattice) :
 atom     1   C  :     0.00000000    0.00000000    0.00000000
 atom     2   C  :     0.33333333    0.33333333    0.00000000
 
 Total atomic forces including IBS (cartesian) :
 atom     1   C  :     0.00000000    0.00379095    0.00016558
 atom     2   C  :     0.00000000   -0.00379095   -0.00016558
 
 Atomic force components including IBS (cartesian) :
 atom     1   C  :     0.00000000   -0.00934122   -0.00050575   HF force
                 :     0.00000000    0.01324396    0.00064858   core correction
                 :     0.00000000    0.00016130    0.00003442   IBS correction
                 :     0.00000000   -0.00027310   -0.00001168   DFT-D2 force
 atom     2   C  :     0.00000000    0.00934122    0.00050575   HF force
                 :     0.00000000   -0.01324396   -0.00064858   core correction
                 :     0.00000000   -0.00016130   -0.00003442   IBS correction
                 :     0.00000000    0.00027310    0.00001168   DFT-D2 force
 
********************************************************************************
| Groundstate module stopped                                                   *
********************************************************************************
 
********************************************************************************
| Structure-optimization module started                                        *
********************************************************************************
 Output level for this task is set to normal
 
 Maximum displacement tau_BFGS   is         :         0.3000
 Maximum displacement tau_newton is         :         0.8000
 
++++++++++++++++++++++++++++++++++++++++++++++++++++++++++++++++++++++++++++++++
| Use harmonic method for optimizing atomic positions                          +
++++++++++++++++++++++++++++++++++++++++++++++++++++++++++++++++++++++++++++++++
 
--------------------------------------------------------------------------------
| Optimization step 0: Initialize optimization                                 -
--------------------------------------------------------------------------------
 Maximum force magnitude           (target) :         0.00379456  (  0.00001000)
 Total energy at this optimization step     :       -76.21090181
 
 Atomic positions at this step (lattice) :
 atom     1   C  :     0.00000000    0.00000000    0.00000000
 atom     2   C  :     0.33333333    0.33333333    0.00000000
 
 Total atomic forces including IBS (cartesian) :
 atom     1   C  :     0.00000000    0.00379095    0.00016558
 atom     2   C  :     0.00000000   -0.00379095   -0.00016558
 
--------------------------------------------------------------------------------
| Optimization step    1    (method = harmonic)                                -
--------------------------------------------------------------------------------
 Number of scf iterations                   :        12  (full newton step)
 Maximum force magnitude           (target) :         0.00114242  (  0.00001000)
 Total energy at this optimization step     :       -76.21091686
 
 Atomic positions at this step (lattice) :
 atom     1   C  :     0.00000000    0.00000000    0.00000000
 atom     2   C  :     0.33261501    0.33261501    0.00000274
 
 Total atomic forces including IBS (cartesian) :
 atom     1   C  :     0.00000000    0.00114155    0.00004471
 atom     2   C  :     0.00000000   -0.00114155   -0.00004471
 
 Time spent in this optimization step       :      2420.36 seconds
 
--------------------------------------------------------------------------------
| Optimization step    2    (method = harmonic)                                -
--------------------------------------------------------------------------------
 Number of scf iterations                   :        12  (full harmonic step)
 Maximum force magnitude           (target) :         0.00000642  (  0.00001000)
 Total energy at this optimization step     :       -76.21091838
 
 Atomic positions at this step (lattice) :
 atom     1   C  :     0.00000000    0.00000000    0.00000000
 atom     2   C  :     0.33230541    0.33230541    0.00000639
 
 Total atomic forces including IBS (cartesian) :
 atom     1   C  :     0.00000000   -0.00000425   -0.00000481
 atom     2   C  :     0.00000000    0.00000425    0.00000481
 
 Time spent in this optimization step       :      2409.79 seconds
 
++++++++++++++++++++++++++++++++++++++++++++++++++++++++++++++++++++++++++++++++
| Force convergence target achieved                                            +
++++++++++++++++++++++++++++++++++++++++++++++++++++++++++++++++++++++++++++++++
 Total energy                               :       -76.21091838
 _______________________________________________________________
 Fermi energy                               :         0.20262943
 Kinetic energy                             :        75.72667115
 Coulomb energy                             :      -141.16655310
 Exchange energy                            :       -10.34458462
 Correlation energy                         :        -0.41818284
 DFT-D2 dispersion correction               :        -0.00826898
 
 DOS at Fermi energy (states/Ha/cell)       :         1.32744028
 
 Electron charges :
     core                                   :         4.00000000
     core leakage                           :         0.00129900
     valence                                :         8.00000000
     interstitial                           :         4.81740978
     charge in muffin-tin spheres :
                  atom     1     C          :         3.59129511
                  atom     2     C          :         3.59129511
     total charge in muffin-tins            :         7.18259022
     total charge                           :        12.00000000
 
 Optimized atomic positions (lattice) :
 atom     1   C  :     0.00000000    0.00000000    0.00000000
 atom     2   C  :     0.33230541    0.33230541    0.00000639
 
 Total atomic forces including IBS (cartesian) :
 atom     1   C  :     0.00000000   -0.00000425   -0.00000481
 atom     2   C  :     0.00000000    0.00000425    0.00000481
 
 Atomic force components including IBS (cartesian) :
 atom     1   C  :     0.00000000   -0.01308457   -0.00067637   HF force
                 :     0.00000000    0.01318060    0.00064908   core correction
                 :     0.00000000    0.00018442    0.00003475   IBS correction
                 :     0.00000000   -0.00028470   -0.00001227   DFT-D2 force
 atom     2   C  :     0.00000000    0.01308457    0.00067637   HF force
                 :     0.00000000   -0.01318060   -0.00064908   core correction
                 :     0.00000000   -0.00018442   -0.00003475   IBS correction
                 :     0.00000000    0.00028470    0.00001227   DFT-D2 force
 
********************************************************************************
| Structure-optimization module stopped                                        *
********************************************************************************
 
 Total time spent (seconds)                 :      7450.74
 
================================================================================
| EXCITING BORON stopped                                                       =
================================================================================
