unknown system                          
   1.00000000000000     
     3.769968    0.000000   -0.000000
     0.000000    3.769968   -0.000000
     0.000000    0.000000    5.054758
   Ba   Ti   O 
     1     1     3
Direct
  0.000000  0.000000  0.085385
  0.500000  0.500000  0.576013
  0.000000  0.500000  0.467501
  0.500000  0.000000  0.467501
  0.500000  0.500000  0.923600
 
   48   48   64
 0.81357367719E+02 0.82670416841E+02 0.86261017984E+02 0.91170509845E+02 0.96065332888E+02
 0.99551790989E+02 0.10048217571E+03 0.98175427701E+02 0.92511135843E+02 0.83897219497E+02
 0.73141468607E+02 0.61269777854E+02 0.49335196043E+02 0.38257391852E+02 0.28721097860E+02
 0.21134433348E+02 0.15467498376E+02 0.11366268823E+02 0.84648501373E+01 0.64491649943E+01
 0.50754368265E+01 0.41662328468E+01 0.35977983681E+01 0.32882100233E+01 0.31901954026E+01
 0.32882100233E+01 0.35977983681E+01 0.41662328468E+01 0.50754368265E+01 0.64491649943E+01
 0.84648501373E+01 0.11366268823E+02 0.15467498376E+02 0.21134433348E+02 0.28721097860E+02
 0.38257391852E+02 0.49335196043E+02 0.61269777854E+02 0.73141468607E+02 0.83897219497E+02
 0.92511135843E+02 0.98175427701E+02 0.10048217571E+03 0.99551790989E+02 0.96065332888E+02
 0.91170509845E+02 0.86261017984E+02 0.82670416841E+02 0.82670416841E+02 0.83923976643E+02
 0.87344898785E+02 0.91999221267E+02 0.96589252154E+02 0.99761417446E+02 0.10040493864E+03
 0.97866457889E+02 0.92040871715E+02 0.83339048219E+02 0.72561784573E+02 0.60721593091E+02
 0.48855370262E+02 0.37866906985E+02 0.28427467777E+02 0.20933364792E+02 0.15339625677E+02
 0.11292463710E+02 0.84296636111E+01 0.64409612817E+01 0.50857998402E+01 0.41891185268E+01
 0.36287323171E+01 0.33236550631E+01 0.32270953941E+01 0.33236550631E+01 0.36287323171E+01
 0.41891185268E+01 0.50857998402E+01 0.64409612817E+01 0.84296636111E+01 0.11292463710E+02
 0.15339625677E+02 0.20933364792E+02 0.28427467777E+02 0.37866906985E+02 0.48855370262E+02
 0.60721593091E+02 0.72561784573E+02 0.83339048219E+02 0.92040871715E+02 0.97866457889E+02
 0.10040493864E+03 0.99761417446E+02 0.96589252154E+02 0.91999221267E+02 0.87344898785E+02
 0.83923976643E+02 0.86261017984E+02 0.87344898785E+02 0.90282249863E+02 0.94210490148E+02
 0.97935116510E+02 0.10021738098E+03 0.10005165110E+03 0.96863112475E+02 0.90589925033E+02
 0.81651137330E+02 0.70827406216E+02 0.59092700334E+02 0.47437218913E+02 0.36718721659E+02
 0.27569408405E+02 0.20349727161E+02 0.14971568988E+02 0.11083640093E+02 0.83346075618E+01
 0.64253510375E+01 0.51246934602E+01 0.42645367100E+01 0.37274072896E+01 0.34352425766E+01
 0.33428225154E+01 0.34352425766E+01 0.37274072896E+01 0.42645367100E+01 0.51246934602E+01
 0.64253510375E+01 0.83346075618E+01 0.11083640093E+02 0.14971568988E+02 0.20349727161E+02
 0.27569408405E+02 0.36718721659E+02 0.47437218913E+02 0.59092700334E+02 0.70827406216E+02
 0.81651137330E+02 0.90589925033E+02 0.96863112475E+02 0.10005165110E+03 0.10021738098E+03
 0.97935116510E+02 0.94210490148E+02 0.90282249863E+02 0.87344898785E+02 0.91170509845E+02
 0.91999221267E+02 0.94210490148E+02 0.97051761055E+02 0.99486389345E+02 0.10044967975E+03
 0.99093970831E+02 0.94961587195E+02 0.88054771429E+02 0.78804120502E+02 0.67959072616E+02
 0.56434046259E+02 0.45146736289E+02 0.34883194014E+02 0.26214791401E+02 0.19439861821E+02
 0.14407226221E+02 0.10774335942E+02 0.82076241319E+01 0.64257671467E+01 0.52124328519E+01
 0.44105736950E+01 0.39103226197E+01 0.36384841911E+01 0.35525487515E+01 0.36384841911E+01
 0.39103226197E+01 0.44105736950E+01 0.52124328519E+01 0.64257671467E+01 0.82076241319E+01
 0.10774335942E+02 0.14407226221E+02 0.19439861821E+02 0.26214791401E+02 0.34883194014E+02
 0.45146736289E+02 0.56434046259E+02 0.67959072616E+02 0.78804120502E+02 0.88054771429E+02
 0.94961587195E+02 0.99093970831E+02 0.10044967975E+03 0.99486389345E+02 0.97051761055E+02
 0.94210490148E+02 0.91999221267E+02 0.96065332888E+02 0.96589252154E+02 0.97935116510E+02
 0.99486389345E+02 0.10039990119E+03 0.99822052464E+02 0.97094794708E+02 0.91899773449E+02
 0.84314573819E+02 0.74781900711E+02 0.64011168026E+02 0.52841455086E+02 0.42098594269E+02
 0.32477776216E+02 0.24473620658E+02 0.18289842697E+02 0.13711537375E+02 0.10413558219E+02
 0.80866399276E+01 0.64730619278E+01 0.53758147626E+01 0.46520415934E+01 0.42015475090E+01
 0.39572905160E+01 0.38801817497E+01 0.39572905160E+01 0.42015475090E+01 0.46520415934E+01
 0.53758147626E+01 0.64730619278E+01 0.80866399276E+01 0.10413558219E+02 0.13711537375E+02
 0.18289842697E+02 0.24473620658E+02 0.32477776216E+02 0.42098594269E+02 0.52841455086E+02
 0.64011168026E+02 0.74781900711E+02 0.84314573819E+02 0.91899773449E+02 0.97094794708E+02
 0.99822052464E+02 0.10039990119E+03 0.99486389345E+02 0.97935116510E+02 0.96589252154E+02
 0.99551790989E+02 0.99761417446E+02 0.10021738098E+03 0.10044967975E+03 0.99822052464E+02
 0.97704606629E+02 0.93638348046E+02 0.87449720540E+02 0.79293028358E+02 0.69620170695E+02
 0.59093256561E+02 0.48465193846E+02 0.38457547428E+02 0.29663151645E+02 0.22487998070E+02
 0.17004575520E+02 0.12961386823E+02 0.10057719259E+02 0.80144842588E+01 0.66020832455E+01
 0.56458230152E+01 0.50187312035E+01 0.46310691639E+01 0.44222133380E+01 0.43565391650E+01
 0.44222133380E+01 0.46310691639E+01 0.50187312035E+01 0.56458230152E+01 0.66020832455E+01
 0.80144842588E+01 0.10057719259E+02 0.12961386823E+02 0.17004575520E+02 0.22487998070E+02
 0.29663151645E+02 0.38457547428E+02 0.48465193846E+02 0.59093256561E+02 0.69620170695E+02
 0.79293028358E+02 0.87449720540E+02 0.93638348046E+02 0.97704606629E+02 0.99822052464E+02
 0.10044967975E+03 0.10021738098E+03 0.99761417446E+02 0.10048217571E+03 0.10040493864E+03
 0.10005165110E+03 0.99093970831E+02 0.97094794708E+02 0.93638348046E+02 0.88454824021E+02
 0.81506633911E+02 0.73017328551E+02 0.63441263691E+02 0.53386543362E+02 0.43513323375E+02
 0.34433376625E+02 0.26633716924E+02 0.20410370793E+02 0.15695642034E+02 0.12238017302E+02
 0.97675659033E+01 0.80397643099E+01 0.68555321402E+01 0.60633148752E+01 0.55518558863E+01
 0.52412578697E+01 0.50766559548E+01 0.50254225032E+01 0.50766559548E+01 0.52412578697E+01
 0.55518558863E+01 0.60633148752E+01 0.68555321402E+01 0.80397643099E+01 0.97675659033E+01
 0.12238017302E+02 0.15695642034E+02 0.20410370793E+02 0.26633716924E+02 0.34433376625E+02
 0.43513323375E+02 0.53386543362E+02 0.63441263691E+02 0.73017328551E+02 0.81506633911E+02
 0.88454824021E+02 0.93638348046E+02 0.97094794708E+02 0.99093970831E+02 0.10005165110E+03
 0.10040493864E+03 0.98175427701E+02 0.97866457889E+02 0.96863112475E+02 0.94961587195E+02
 0.91899773449E+02 0.87449720540E+02 0.81506633911E+02 0.74149238468E+02 0.65655657375E+02
 0.56472428271E+02 0.47147242208E+02 0.38244913038E+02 0.30268618530E+02 0.23602713009E+02
 0.18388575924E+02 0.14471768356E+02 0.11623675468E+02 0.96101405630E+01 0.82230765856E+01
 0.72934747159E+01 0.66911402826E+01 0.63182903013E+01 0.61027765259E+01 0.59938913506E+01
 0.59610278708E+01 0.59938913506E+01 0.61027765259E+01 0.63182903013E+01 0.66911402826E+01
 0.72934747159E+01 0.82230765856E+01 0.96101405630E+01 0.11623675468E+02 0.14471768356E+02
 0.18388575924E+02 0.23602713009E+02 0.30268618530E+02 0.38244913038E+02 0.47147242208E+02
 0.56472428271E+02 0.65655657375E+02 0.74149238468E+02 0.81506633911E+02 0.87449720540E+02
 0.91899773449E+02 0.94961587195E+02 0.96863112475E+02 0.97866457889E+02 0.92511135843E+02
 0.92040871715E+02 0.90589925033E+02 0.88054771429E+02 0.84314573819E+02 0.79293028358E+02
 0.73017328551E+02 0.65655657375E+02 0.57520961390E+02 0.49039404430E+02 0.40692969765E+02
 0.32952892227E+02 0.26221358700E+02 0.20762925184E+02 0.16555228392E+02 0.13434629565E+02
 0.11202996216E+02 0.96641303560E+01 0.86449894273E+01 0.80031537786E+01 0.76254773913E+01
 0.74233832862E+01 0.73287761348E+01 0.72922826922E+01 0.72835484402E+01 0.72922826922E+01
 0.73287761348E+01 0.74233832862E+01 0.76254773913E+01 0.80031537786E+01 0.86449894273E+01
 0.96641303560E+01 0.11202996216E+02 0.13434629565E+02 0.16555228392E+02 0.20762925184E+02
 0.26221358700E+02 0.32952892227E+02 0.40692969765E+02 0.49039404430E+02 0.57520961390E+02
 0.65655657375E+02 0.73017328551E+02 0.79293028358E+02 0.84314573819E+02 0.88054771429E+02
 0.90589925033E+02 0.92040871715E+02 0.83897219497E+02 0.83339048219E+02 0.81651137330E+02
 0.78804120502E+02 0.74781900711E+02 0.69620170695E+02 0.63441263691E+02 0.56472428271E+02
 0.49039404430E+02 0.41535425131E+02 0.34374152518E+02 0.27939773918E+02 0.22538186727E+02
 0.18261444229E+02 0.15022968785E+02 0.12679208881E+02 0.11066226516E+02 0.10024182969E+02
 0.94102441768E+01 0.91023413014E+01 0.89979413114E+01 0.90116912722E+01 0.90743749926E+01
 0.91338786020E+01 0.91574503328E+01 0.91338786020E+01 0.90743749926E+01 0.90116912722E+01
 0.89979413114E+01 0.91023413014E+01 0.94102441768E+01 0.10024182969E+02 0.11066226516E+02
 0.12679208881E+02 0.15022968785E+02 0.18261444229E+02 0.22538186727E+02 0.27939773918E+02
 0.34374152518E+02 0.41535425131E+02 0.49039404430E+02 0.56472428271E+02 0.63441263691E+02
 0.69620170695E+02 0.74781900711E+02 0.78804120502E+02 0.81651137330E+02 0.83339048219E+02
 0.73141468607E+02 0.72561784573E+02 0.70827406216E+02 0.67959072616E+02 0.64011168026E+02
 0.59093256561E+02 0.53386543362E+02 0.47147242208E+02 0.40692969765E+02 0.34374152518E+02
 0.28537601613E+02 0.23488229157E+02 0.19382280909E+02 0.16207711072E+02 0.13884180465E+02
 0.12294861217E+02 0.11309488173E+02 0.10799269164E+02 0.10643935706E+02 0.10733538432E+02
 0.10968204232E+02 0.11258442066E+02 0.11527340319E+02 0.11714638461E+02 0.11781546879E+02
 0.11714638461E+02 0.11527340319E+02 0.11258442066E+02 0.10968204232E+02 0.10733538432E+02
 0.10643935706E+02 0.10799269164E+02 0.11309488173E+02 0.12294861217E+02 0.13884180465E+02
 0.16207711072E+02 0.19382280909E+02 0.23488229157E+02 0.28537601613E+02 0.34374152518E+02
 0.40692969765E+02 0.47147242208E+02 0.53386543362E+02 0.59093256561E+02 0.64011168026E+02
 0.67959072616E+02 0.70827406216E+02 0.72561784573E+02 0.61269777854E+02 0.60721593091E+02
 0.59092700334E+02 0.56434046259E+02 0.52841455086E+02 0.48465193846E+02 0.43513323375E+02
 0.38244913038E+02 0.32952892227E+02 0.27939773918E+02 0.23488229157E+02 0.19773047382E+02
 0.16841180961E+02 0.14674714900E+02 0.13211578750E+02 0.12363535542E+02 0.12029818611E+02
 0.12105177437E+02 0.12483247129E+02 0.13057395741E+02 0.13721511502E+02 0.14372735707E+02
 0.14917121819E+02 0.15277820920E+02 0.15403997493E+02 0.15277820920E+02 0.14917121819E+02
 0.14372735707E+02 0.13721511502E+02 0.13057395741E+02 0.12483247129E+02 0.12105177437E+02
 0.12029818611E+02 0.12363535542E+02 0.13211578750E+02 0.14674714900E+02 0.16841180961E+02
 0.19773047382E+02 0.23488229157E+02 0.27939773918E+02 0.32952892227E+02 0.38244913038E+02
 0.43513323375E+02 0.48465193846E+02 0.52841455086E+02 0.56434046259E+02 0.59092700334E+02
 0.60721593091E+02 0.49335196043E+02 0.48855370262E+02 0.47437218913E+02 0.45146736289E+02
 0.42098594269E+02 0.38457547428E+02 0.34433376625E+02 0.30268618530E+02 0.26221358700E+02
 0.22538186727E+02 0.19382280909E+02 0.16841180961E+02 0.14950231207E+02 0.13702089313E+02
 0.13057559098E+02 0.12955245193E+02 0.13318475695E+02 0.14058904799E+02 0.15077180420E+02
 0.16262170959E+02 0.17491273970E+02 0.18634645228E+02 0.19565161029E+02 0.20173538275E+02
 0.20385183933E+02 0.20173538275E+02 0.19565161029E+02 0.18634645228E+02 0.17491273970E+02
 0.16262170959E+02 0.15077180420E+02 0.14058904799E+02 0.13318475695E+02 0.12955245193E+02
 0.13057559098E+02 0.13702089313E+02 0.14950231207E+02 0.16841180961E+02 0.19382280909E+02
 0.22538186727E+02 0.26221358700E+02 0.30268618530E+02 0.34433376625E+02 0.38457547428E+02
 0.42098594269E+02 0.45146736289E+02 0.47437218913E+02 0.48855370262E+02 0.38257391852E+02
 0.37866906985E+02 0.36718721659E+02 0.34883194014E+02 0.32477776216E+02 0.29663151645E+02
 0.26633716924E+02 0.23602713009E+02 0.20762925184E+02 0.18261444229E+02 0.16207711072E+02
 0.14674714900E+02 0.13702089313E+02 0.13299950128E+02 0.13452966686E+02 0.14124412661E+02
 0.15259187267E+02 0.16784106047E+02 0.18604423925E+02 0.20597991769E+02 0.22611551126E+02
 0.24465216159E+02 0.25969325129E+02 0.26952657891E+02 0.27294906457E+02 0.26952657891E+02
 0.25969325129E+02 0.24465216159E+02 0.22611551126E+02 0.20597991769E+02 0.18604423925E+02
 0.16784106047E+02 0.15259187267E+02 0.14124412661E+02 0.13452966686E+02 0.13299950128E+02
 0.13702089313E+02 0.14674714900E+02 0.16207711072E+02 0.18261444229E+02 0.20762925184E+02
 0.23602713009E+02 0.26633716924E+02 0.29663151645E+02 0.32477776216E+02 0.34883194014E+02
 0.36718721659E+02 0.37866906985E+02 0.28721097860E+02 0.28427467777E+02 0.27569408405E+02
 0.26214791401E+02 0.24473620658E+02 0.22487998070E+02 0.20410370793E+02 0.18388575924E+02
 0.16555228392E+02 0.15022968785E+02 0.13884180465E+02 0.13211578750E+02 0.13057559098E+02
 0.13452966686E+02 0.14407246746E+02 0.15910412553E+02 0.17934108357E+02 0.20427146577E+02
 0.23302810533E+02 0.26421038716E+02 0.29575269289E+02 0.32496481917E+02 0.34882584755E+02
 0.36450679135E+02 0.36997982640E+02 0.36450679135E+02 0.34882584755E+02 0.32496481917E+02
 0.29575269289E+02 0.26421038716E+02 0.23302810533E+02 0.20427146577E+02 0.17934108357E+02
 0.15910412553E+02 0.14407246746E+02 0.13452966686E+02 0.13057559098E+02 0.13211578750E+02
 0.13884180465E+02 0.15022968785E+02 0.16555228392E+02 0.18388575924E+02 0.20410370793E+02
 0.22487998070E+02 0.24473620658E+02 0.26214791401E+02 0.27569408405E+02 0.28427467777E+02
 0.21134433348E+02 0.20933364792E+02 0.20349727161E+02 0.19439861821E+02 0.18289842697E+02
 0.17004575520E+02 0.15695642034E+02 0.14471768356E+02 0.13434629565E+02 0.12679208881E+02
 0.12294861217E+02 0.12363535542E+02 0.12955245193E+02 0.14124412661E+02 0.15910412553E+02
 0.18340934096E+02 0.21431027052E+02 0.25168853511E+02 0.29484519698E+02 0.34209884174E+02
 0.39048974740E+02 0.43582303985E+02 0.47318826718E+02 0.49789275425E+02 0.50654106921E+02
 0.49789275425E+02 0.47318826718E+02 0.43582303985E+02 0.39048974740E+02 0.34209884174E+02
 0.29484519698E+02 0.25168853511E+02 0.21431027052E+02 0.18340934096E+02 0.15910412553E+02
 0.14124412661E+02 0.12955245193E+02 0.12363535542E+02 0.12294861217E+02 0.12679208881E+02
 0.13434629565E+02 0.14471768356E+02 0.15695642034E+02 0.17004575520E+02 0.18289842697E+02
 0.19439861821E+02 0.20349727161E+02 0.20933364792E+02 0.15467498376E+02 0.15339625677E+02
 0.14971568988E+02 0.14407226221E+02 0.13711537375E+02 0.12961386823E+02 0.12238017302E+02
 0.11623675468E+02 0.11202996216E+02 0.11066226516E+02 0.11309488173E+02 0.12029818611E+02
 0.13318475695E+02 0.15259187267E+02 0.17934108357E+02 0.21431027052E+02 0.25837593746E+02
 0.31208527824E+02 0.37502781067E+02 0.44507270884E+02 0.51782855170E+02 0.58672550249E+02
 0.64392573811E+02 0.68190552799E+02 0.69522660611E+02 0.68190552799E+02 0.64392573811E+02
 0.58672550249E+02 0.51782855170E+02 0.44507270884E+02 0.37502781067E+02 0.31208527824E+02
 0.25837593746E+02 0.21431027052E+02 0.17934108357E+02 0.15259187267E+02 0.13318475695E+02
 0.12029818611E+02 0.11309488173E+02 0.11066226516E+02 0.11202996216E+02 0.11623675468E+02
 0.12238017302E+02 0.12961386823E+02 0.13711537375E+02 0.14407226221E+02 0.14971568988E+02
 0.15339625677E+02 0.11366268823E+02 0.11292463710E+02 0.11083640093E+02 0.10774335942E+02
 0.10413558219E+02 0.10057719259E+02 0.97675659033E+01 0.96101405630E+01 0.96641303560E+01
 0.10024182969E+02 0.10799269164E+02 0.12105177437E+02 0.14058904799E+02 0.16784106047E+02
 0.20427146577E+02 0.25168853511E+02 0.31208527824E+02 0.38700729639E+02 0.47643963959E+02
 0.57751777153E+02 0.68367335874E+02 0.78487738360E+02 0.86967547438E+02 0.92675185529E+02
 0.94695180683E+02 0.92675185529E+02 0.86967547438E+02 0.78487738360E+02 0.68367335874E+02
 0.57751777153E+02 0.47643963959E+02 0.38700729639E+02 0.31208527824E+02 0.25168853511E+02
 0.20427146577E+02 0.16784106047E+02 0.14058904799E+02 0.12105177437E+02 0.10799269164E+02
 0.10024182969E+02 0.96641303560E+01 0.96101405630E+01 0.97675659033E+01 0.10057719259E+02
 0.10413558219E+02 0.10774335942E+02 0.11083640093E+02 0.11292463710E+02 0.84648501373E+01
 0.84296636111E+01 0.83346075618E+01 0.82076241319E+01 0.80866399276E+01 0.80144842588E+01
 0.80397643099E+01 0.82230765856E+01 0.86449894273E+01 0.94102441768E+01 0.10643935706E+02
 0.12483247129E+02 0.15077180420E+02 0.18604423925E+02 0.23302810533E+02 0.29484519698E+02
 0.37502781067E+02 0.47643963959E+02 0.59947660155E+02 0.74007580977E+02 0.88935500849E+02
 0.10359209436E+03 0.11624196673E+03 0.12489238687E+03 0.12797361257E+03 0.12489238687E+03
 0.11624196673E+03 0.10359209436E+03 0.88935500849E+02 0.74007580977E+02 0.59947660155E+02
 0.47643963959E+02 0.37502781067E+02 0.29484519698E+02 0.23302810533E+02 0.18604423925E+02
 0.15077180420E+02 0.12483247129E+02 0.10643935706E+02 0.94102441768E+01 0.86449894273E+01
 0.82230765856E+01 0.80397643099E+01 0.80144842588E+01 0.80866399276E+01 0.82076241319E+01
 0.83346075618E+01 0.84296636111E+01 0.64491649943E+01 0.64409612817E+01 0.64253510375E+01
 0.64257671467E+01 0.64730619278E+01 0.66020832455E+01 0.68555321402E+01 0.72934747159E+01
 0.80031537786E+01 0.91023413014E+01 0.10733538432E+02 0.13057395741E+02 0.16262170959E+02
 0.20597991769E+02 0.26421038716E+02 0.34209884174E+02 0.44507270884E+02 0.57751777153E+02
 0.74007580977E+02 0.92842331577E+02 0.11361615350E+03 0.13456218741E+03 0.15284347549E+03
 0.16538787390E+03 0.16985869415E+03 0.16538787390E+03 0.15284347549E+03 0.13456218741E+03
 0.11361615350E+03 0.92842331577E+02 0.74007580977E+02 0.57751777153E+02 0.44507270884E+02
 0.34209884174E+02 0.26421038716E+02 0.20597991769E+02 0.16262170959E+02 0.13057395741E+02
 0.10733538432E+02 0.91023413014E+01 0.80031537786E+01 0.72934747159E+01 0.68555321402E+01
 0.66020832455E+01 0.64730619278E+01 0.64257671467E+01 0.64253510375E+01 0.64409612817E+01
 0.50754368265E+01 0.50857998402E+01 0.51246934602E+01 0.52124328519E+01 0.53758147626E+01
 0.56458230152E+01 0.60633148752E+01 0.66911402826E+01 0.76254773913E+01 0.89979413114E+01
 0.10968204232E+02 0.13721511502E+02 0.17491273970E+02 0.22611551126E+02 0.29575269289E+02
 0.39048974740E+02 0.51782855170E+02 0.68367335874E+02 0.88935500849E+02 0.11361615350E+03
 0.14153670215E+03 0.16991816482E+03 0.19467940246E+03 0.21161857825E+03 0.21764176119E+03
 0.21161857825E+03 0.19467940246E+03 0.16991816482E+03 0.14153670215E+03 0.11361615350E+03
 0.88935500849E+02 0.68367335874E+02 0.51782855170E+02 0.39048974740E+02 0.29575269289E+02
 0.22611551126E+02 0.17491273970E+02 0.13721511502E+02 0.10968204232E+02 0.89979413114E+01
 0.76254773913E+01 0.66911402826E+01 0.60633148752E+01 0.56458230152E+01 0.53758147626E+01
 0.52124328519E+01 0.51246934602E+01 0.50857998402E+01 0.41662328468E+01 0.41891185268E+01
 0.42645367100E+01 0.44105736950E+01 0.46520415934E+01 0.50187312035E+01 0.55518558863E+01
 0.63182903013E+01 0.74233832862E+01 0.90116912722E+01 0.11258442066E+02 0.14372735707E+02
 0.18634645228E+02 0.24465216159E+02 0.32496481917E+02 0.43582303985E+02 0.58672550249E+02
 0.78487738360E+02 0.10359209436E+03 0.13456218741E+03 0.16991816482E+03 0.20581011990E+03
 0.23695579115E+03 0.25814529584E+03 0.26565477253E+03 0.25814529584E+03 0.23695579115E+03
 0.20581011990E+03 0.16991816482E+03 0.13456218741E+03 0.10359209436E+03 0.78487738360E+02
 0.58672550249E+02 0.43582303985E+02 0.32496481917E+02 0.24465216159E+02 0.18634645228E+02
 0.14372735707E+02 0.11258442066E+02 0.90116912722E+01 0.74233832862E+01 0.63182903013E+01
 0.55518558863E+01 0.50187312035E+01 0.46520415934E+01 0.44105736950E+01 0.42645367100E+01
 0.41891185268E+01 0.35977983681E+01 0.36287323171E+01 0.37274072896E+01 0.39103226197E+01
 0.42015475090E+01 0.46310691639E+01 0.52412578697E+01 0.61027765259E+01 0.73287761348E+01
 0.90743749926E+01 0.11527340319E+02 0.14917121819E+02 0.19565161029E+02 0.25969325129E+02
 0.34882584755E+02 0.47318826718E+02 0.64392573811E+02 0.86967547438E+02 0.11624196673E+03
 0.15284347549E+03 0.19467940246E+03 0.23695579115E+03 0.27341072945E+03 0.29807505234E+03
 0.30678815634E+03 0.29807505234E+03 0.27341072945E+03 0.23695579115E+03 0.19467940246E+03
 0.15284347549E+03 0.11624196673E+03 0.86967547438E+02 0.64392573811E+02 0.47318826718E+02
 0.34882584755E+02 0.25969325129E+02 0.19565161029E+02 0.14917121819E+02 0.11527340319E+02
 0.90743749926E+01 0.73287761348E+01 0.61027765259E+01 0.52412578697E+01 0.46310691639E+01
 0.42015475090E+01 0.39103226197E+01 0.37274072896E+01 0.36287323171E+01 0.32882100233E+01
 0.33236550631E+01 0.34352425766E+01 0.36384841911E+01 0.39572905160E+01 0.44222133380E+01
 0.50766559548E+01 0.59938913506E+01 0.72922826922E+01 0.91338786020E+01 0.11714638461E+02
 0.15277820920E+02 0.20173538275E+02 0.26952657891E+02 0.36450679135E+02 0.49789275425E+02
 0.68190552799E+02 0.92675185529E+02 0.12489238687E+03 0.16538787390E+03 0.21161857825E+03
 0.25814529584E+03 0.29807505234E+03 0.32498269723E+03 0.33446682800E+03 0.32498269723E+03
 0.29807505234E+03 0.25814529584E+03 0.21161857825E+03 0.16538787390E+03 0.12489238687E+03
 0.92675185529E+02 0.68190552799E+02 0.49789275425E+02 0.36450679135E+02 0.26952657891E+02
 0.20173538275E+02 0.15277820920E+02 0.11714638461E+02 0.91338786020E+01 0.72922826922E+01
 0.59938913506E+01 0.50766559548E+01 0.44222133380E+01 0.39572905160E+01 0.36384841911E+01
 0.34352425766E+01 0.33236550631E+01 0.31901954026E+01 0.32270953941E+01 0.33428225154E+01
 0.35525487515E+01 0.38801817497E+01 0.43565391650E+01 0.50254225032E+01 0.59610278708E+01
 0.72835484402E+01 0.91574503328E+01 0.11781546879E+02 0.15403997493E+02 0.20385183933E+02
 0.27294906457E+02 0.36997982640E+02 0.50654106921E+02 0.69522660611E+02 0.94695180683E+02
 0.12797361257E+03 0.16985869415E+03 0.21764176119E+03 0.26565477253E+03 0.30678815634E+03
 0.33446682800E+03 0.34421476791E+03 0.33446682800E+03 0.30678815634E+03 0.26565477253E+03
 0.21764176119E+03 0.16985869415E+03 0.12797361257E+03 0.94695180683E+02 0.69522660611E+02
 0.50654106921E+02 0.36997982640E+02 0.27294906457E+02 0.20385183933E+02 0.15403997493E+02
 0.11781546879E+02 0.91574503328E+01 0.72835484402E+01 0.59610278708E+01 0.50254225032E+01
 0.43565391650E+01 0.38801817497E+01 0.35525487515E+01 0.33428225154E+01 0.32270953941E+01
 0.32882100233E+01 0.33236550631E+01 0.34352425766E+01 0.36384841911E+01 0.39572905160E+01
 0.44222133380E+01 0.50766559548E+01 0.59938913506E+01 0.72922826922E+01 0.91338786020E+01
 0.11714638461E+02 0.15277820920E+02 0.20173538275E+02 0.26952657891E+02 0.36450679135E+02
 0.49789275425E+02 0.68190552799E+02 0.92675185529E+02 0.12489238687E+03 0.16538787390E+03
 0.21161857825E+03 0.25814529584E+03 0.29807505234E+03 0.32498269723E+03 0.33446682800E+03
 0.32498269723E+03 0.29807505234E+03 0.25814529584E+03 0.21161857825E+03 0.16538787390E+03
 0.12489238687E+03 0.92675185529E+02 0.68190552799E+02 0.49789275425E+02 0.36450679135E+02
 0.26952657891E+02 0.20173538275E+02 0.15277820920E+02 0.11714638461E+02 0.91338786020E+01
 0.72922826922E+01 0.59938913506E+01 0.50766559548E+01 0.44222133380E+01 0.39572905160E+01
 0.36384841911E+01 0.34352425766E+01 0.33236550631E+01 0.35977983681E+01 0.36287323171E+01
 0.37274072896E+01 0.39103226197E+01 0.42015475090E+01 0.46310691639E+01 0.52412578697E+01
 0.61027765259E+01 0.73287761348E+01 0.90743749926E+01 0.11527340319E+02 0.14917121819E+02
 0.19565161029E+02 0.25969325129E+02 0.34882584755E+02 0.47318826718E+02 0.64392573811E+02
 0.86967547438E+02 0.11624196673E+03 0.15284347549E+03 0.19467940246E+03 0.23695579115E+03
 0.27341072945E+03 0.29807505234E+03 0.30678815634E+03 0.29807505234E+03 0.27341072945E+03
 0.23695579115E+03 0.19467940246E+03 0.15284347549E+03 0.11624196673E+03 0.86967547438E+02
 0.64392573811E+02 0.47318826718E+02 0.34882584755E+02 0.25969325129E+02 0.19565161029E+02
 0.14917121819E+02 0.11527340319E+02 0.90743749926E+01 0.73287761348E+01 0.61027765259E+01
 0.52412578697E+01 0.46310691639E+01 0.42015475090E+01 0.39103226197E+01 0.37274072896E+01
 0.36287323171E+01 0.41662328468E+01 0.41891185268E+01 0.42645367100E+01 0.44105736950E+01
 0.46520415934E+01 0.50187312035E+01 0.55518558863E+01 0.63182903013E+01 0.74233832862E+01
 0.90116912722E+01 0.11258442066E+02 0.14372735707E+02 0.18634645228E+02 0.24465216159E+02
 0.32496481917E+02 0.43582303985E+02 0.58672550249E+02 0.78487738360E+02 0.10359209436E+03
 0.13456218741E+03 0.16991816482E+03 0.20581011990E+03 0.23695579115E+03 0.25814529584E+03
 0.26565477253E+03 0.25814529584E+03 0.23695579115E+03 0.20581011990E+03 0.16991816482E+03
 0.13456218741E+03 0.10359209436E+03 0.78487738360E+02 0.58672550249E+02 0.43582303985E+02
 0.32496481917E+02 0.24465216159E+02 0.18634645228E+02 0.14372735707E+02 0.11258442066E+02
 0.90116912722E+01 0.74233832862E+01 0.63182903013E+01 0.55518558863E+01 0.50187312035E+01
 0.46520415934E+01 0.44105736950E+01 0.42645367100E+01 0.41891185268E+01 0.50754368265E+01
 0.50857998402E+01 0.51246934602E+01 0.52124328519E+01 0.53758147626E+01 0.56458230152E+01
 0.60633148752E+01 0.66911402826E+01 0.76254773913E+01 0.89979413114E+01 0.10968204232E+02
 0.13721511502E+02 0.17491273970E+02 0.22611551126E+02 0.29575269289E+02 0.39048974740E+02
 0.51782855170E+02 0.68367335874E+02 0.88935500849E+02 0.11361615350E+03 0.14153670215E+03
 0.16991816482E+03 0.19467940246E+03 0.21161857825E+03 0.21764176119E+03 0.21161857825E+03
 0.19467940246E+03 0.16991816482E+03 0.14153670215E+03 0.11361615350E+03 0.88935500849E+02
 0.68367335874E+02 0.51782855170E+02 0.39048974740E+02 0.29575269289E+02 0.22611551126E+02
 0.17491273970E+02 0.13721511502E+02 0.10968204232E+02 0.89979413114E+01 0.76254773913E+01
 0.66911402826E+01 0.60633148752E+01 0.56458230152E+01 0.53758147626E+01 0.52124328519E+01
 0.51246934602E+01 0.50857998402E+01 0.64491649943E+01 0.64409612817E+01 0.64253510375E+01
 0.64257671467E+01 0.64730619278E+01 0.66020832455E+01 0.68555321402E+01 0.72934747159E+01
 0.80031537786E+01 0.91023413014E+01 0.10733538432E+02 0.13057395741E+02 0.16262170959E+02
 0.20597991769E+02 0.26421038716E+02 0.34209884174E+02 0.44507270884E+02 0.57751777153E+02
 0.74007580977E+02 0.92842331577E+02 0.11361615350E+03 0.13456218741E+03 0.15284347549E+03
 0.16538787390E+03 0.16985869415E+03 0.16538787390E+03 0.15284347549E+03 0.13456218741E+03
 0.11361615350E+03 0.92842331577E+02 0.74007580977E+02 0.57751777153E+02 0.44507270884E+02
 0.34209884174E+02 0.26421038716E+02 0.20597991769E+02 0.16262170959E+02 0.13057395741E+02
 0.10733538432E+02 0.91023413014E+01 0.80031537786E+01 0.72934747159E+01 0.68555321402E+01
 0.66020832455E+01 0.64730619278E+01 0.64257671467E+01 0.64253510375E+01 0.64409612817E+01
 0.84648501373E+01 0.84296636111E+01 0.83346075618E+01 0.82076241319E+01 0.80866399276E+01
 0.80144842588E+01 0.80397643099E+01 0.82230765856E+01 0.86449894273E+01 0.94102441768E+01
 0.10643935706E+02 0.12483247129E+02 0.15077180420E+02 0.18604423925E+02 0.23302810533E+02
 0.29484519698E+02 0.37502781067E+02 0.47643963959E+02 0.59947660155E+02 0.74007580977E+02
 0.88935500849E+02 0.10359209436E+03 0.11624196673E+03 0.12489238687E+03 0.12797361257E+03
 0.12489238687E+03 0.11624196673E+03 0.10359209436E+03 0.88935500849E+02 0.74007580977E+02
 0.59947660155E+02 0.47643963959E+02 0.37502781067E+02 0.29484519698E+02 0.23302810533E+02
 0.18604423925E+02 0.15077180420E+02 0.12483247129E+02 0.10643935706E+02 0.94102441768E+01
 0.86449894273E+01 0.82230765856E+01 0.80397643099E+01 0.80144842588E+01 0.80866399276E+01
 0.82076241319E+01 0.83346075618E+01 0.84296636111E+01 0.11366268823E+02 0.11292463710E+02
 0.11083640093E+02 0.10774335942E+02 0.10413558219E+02 0.10057719259E+02 0.97675659033E+01
 0.96101405630E+01 0.96641303560E+01 0.10024182969E+02 0.10799269164E+02 0.12105177437E+02
 0.14058904799E+02 0.16784106047E+02 0.20427146577E+02 0.25168853511E+02 0.31208527824E+02
 0.38700729639E+02 0.47643963959E+02 0.57751777153E+02 0.68367335874E+02 0.78487738360E+02
 0.86967547438E+02 0.92675185529E+02 0.94695180683E+02 0.92675185529E+02 0.86967547438E+02
 0.78487738360E+02 0.68367335874E+02 0.57751777153E+02 0.47643963959E+02 0.38700729639E+02
 0.31208527824E+02 0.25168853511E+02 0.20427146577E+02 0.16784106047E+02 0.14058904799E+02
 0.12105177437E+02 0.10799269164E+02 0.10024182969E+02 0.96641303560E+01 0.96101405630E+01
 0.97675659033E+01 0.10057719259E+02 0.10413558219E+02 0.10774335942E+02 0.11083640093E+02
 0.11292463710E+02 0.15467498376E+02 0.15339625677E+02 0.14971568988E+02 0.14407226221E+02
 0.13711537375E+02 0.12961386823E+02 0.12238017302E+02 0.11623675468E+02 0.11202996216E+02
 0.11066226516E+02 0.11309488173E+02 0.12029818611E+02 0.13318475695E+02 0.15259187267E+02
 0.17934108357E+02 0.21431027052E+02 0.25837593746E+02 0.31208527824E+02 0.37502781067E+02
 0.44507270884E+02 0.51782855170E+02 0.58672550249E+02 0.64392573811E+02 0.68190552799E+02
 0.69522660611E+02 0.68190552799E+02 0.64392573811E+02 0.58672550249E+02 0.51782855170E+02
 0.44507270884E+02 0.37502781067E+02 0.31208527824E+02 0.25837593746E+02 0.21431027052E+02
 0.17934108357E+02 0.15259187267E+02 0.13318475695E+02 0.12029818611E+02 0.11309488173E+02
 0.11066226516E+02 0.11202996216E+02 0.11623675468E+02 0.12238017302E+02 0.12961386823E+02
 0.13711537375E+02 0.14407226221E+02 0.14971568988E+02 0.15339625677E+02 0.21134433348E+02
 0.20933364792E+02 0.20349727161E+02 0.19439861821E+02 0.18289842697E+02 0.17004575520E+02
 0.15695642034E+02 0.14471768356E+02 0.13434629565E+02 0.12679208881E+02 0.12294861217E+02
 0.12363535542E+02 0.12955245193E+02 0.14124412661E+02 0.15910412553E+02 0.18340934096E+02
 0.21431027052E+02 0.25168853511E+02 0.29484519698E+02 0.34209884174E+02 0.39048974740E+02
 0.43582303985E+02 0.47318826718E+02 0.49789275425E+02 0.50654106921E+02 0.49789275425E+02
 0.47318826718E+02 0.43582303985E+02 0.39048974740E+02 0.34209884174E+02 0.29484519698E+02
 0.25168853511E+02 0.21431027052E+02 0.18340934096E+02 0.15910412553E+02 0.14124412661E+02
 0.12955245193E+02 0.12363535542E+02 0.12294861217E+02 0.12679208881E+02 0.13434629565E+02