ESCALE ; pCOOP file generated by LOBSTER. Energy is shifted such that the Fermi level lies at 0 eV.
      5251          1         11  -3.20110e+01   1.24334e+01   3.54453e+00 
Average
No.1:Ba1->Ba1(5.0547580007260491)
No.1:Ba1[5s]->Ba1[5s](5.0547580007260491)
No.1:Ba1[6s]->Ba1[5s](5.0547580007260491)
No.1:Ba1[5p_y]->Ba1[5s](5.0547580007260491)
No.1:Ba1[5p_z]->Ba1[5s](5.0547580007260491)
No.1:Ba1[5p_x]->Ba1[5s](5.0547580007260491)
No.1:Ba1[5s]->Ba1[6s](5.0547580007260491)
No.1:Ba1[6s]->Ba1[6s](5.0547580007260491)
No.1:Ba1[5p_y]->Ba1[6s](5.0547580007260491)
No.1:Ba1[5p_z]->Ba1[6s](5.0547580007260491)
No.1:Ba1[5p_x]->Ba1[6s](5.0547580007260491)
No.1:Ba1[5s]->Ba1[5p_y](5.0547580007260491)
No.1:Ba1[6s]->Ba1[5p_y](5.0547580007260491)
No.1:Ba1[5p_y]->Ba1[5p_y](5.0547580007260491)
No.1:Ba1[5p_z]->Ba1[5p_y](5.0547580007260491)
No.1:Ba1[5p_x]->Ba1[5p_y](5.0547580007260491)
No.1:Ba1[5s]->Ba1[5p_z](5.0547580007260491)
No.1:Ba1[6s]->Ba1[5p_z](5.0547580007260491)
No.1:Ba1[5p_y]->Ba1[5p_z](5.0547580007260491)
No.1:Ba1[5p_z]->Ba1[5p_z](5.0547580007260491)
No.1:Ba1[5p_x]->Ba1[5p_z](5.0547580007260491)
No.1:Ba1[5s]->Ba1[5p_x](5.0547580007260491)
No.1:Ba1[6s]->Ba1[5p_x](5.0547580007260491)
No.1:Ba1[5p_y]->Ba1[5p_x](5.0547580007260491)
No.1:Ba1[5p_z]->Ba1[5p_x](5.0547580007260491)
No.1:Ba1[5p_x]->Ba1[5p_x](5.0547580007260491)
No.2:Ba1->Ba1(5.3315394135569463)
No.2:Ba1[5s]->Ba1[5s](5.3315394135569463)
No.2:Ba1[6s]->Ba1[5s](5.3315394135569463)
No.2:Ba1[5p_y]->Ba1[5s](5.3315394135569463)
No.2:Ba1[5p_z]->Ba1[5s](5.3315394135569463)
No.2:Ba1[5p_x]->Ba1[5s](5.3315394135569463)
No.2:Ba1[5s]->Ba1[6s](5.3315394135569463)
No.2:Ba1[6s]->Ba1[6s](5.3315394135569463)
No.2:Ba1[5p_y]->Ba1[6s](5.3315394135569463)
No.2:Ba1[5p_z]->Ba1[6s](5.3315394135569463)
No.2:Ba1[5p_x]->Ba1[6s](5.3315394135569463)
No.2:Ba1[5s]->Ba1[5p_y](5.3315394135569463)
No.2:Ba1[6s]->Ba1[5p_y](5.3315394135569463)
No.2:Ba1[5p_y]->Ba1[5p_y](5.3315394135569463)
No.2:Ba1[5p_z]->Ba1[5p_y](5.3315394135569463)
No.2:Ba1[5p_x]->Ba1[5p_y](5.3315394135569463)
No.2:Ba1[5s]->Ba1[5p_z](5.3315394135569463)
No.2:Ba1[6s]->Ba1[5p_z](5.3315394135569463)
No.2:Ba1[5p_y]->Ba1[5p_z](5.3315394135569463)
No.2:Ba1[5p_z]->Ba1[5p_z](5.3315394135569463)
No.2:Ba1[5p_x]->Ba1[5p_z](5.3315394135569463)
No.2:Ba1[5s]->Ba1[5p_x](5.3315394135569463)
No.2:Ba1[6s]->Ba1[5p_x](5.3315394135569463)
No.2:Ba1[5p_y]->Ba1[5p_x](5.3315394135569463)
No.2:Ba1[5p_z]->Ba1[5p_x](5.3315394135569463)
No.2:Ba1[5p_x]->Ba1[5p_x](5.3315394135569463)
No.3:Ba1->Ba1(3.7699676734894645)
No.3:Ba1[5s]->Ba1[5s](3.7699676734894645)
No.3:Ba1[6s]->Ba1[5s](3.7699676734894645)
No.3:Ba1[5p_y]->Ba1[5s](3.7699676734894645)
No.3:Ba1[5p_z]->Ba1[5s](3.7699676734894645)
No.3:Ba1[5p_x]->Ba1[5s](3.7699676734894645)
No.3:Ba1[5s]->Ba1[6s](3.7699676734894645)
No.3:Ba1[6s]->Ba1[6s](3.7699676734894645)
No.3:Ba1[5p_y]->Ba1[6s](3.7699676734894645)
No.3:Ba1[5p_z]->Ba1[6s](3.7699676734894645)
No.3:Ba1[5p_x]->Ba1[6s](3.7699676734894645)
No.3:Ba1[5s]->Ba1[5p_y](3.7699676734894645)
No.3:Ba1[6s]->Ba1[5p_y](3.7699676734894645)
No.3:Ba1[5p_y]->Ba1[5p_y](3.7699676734894645)
No.3:Ba1[5p_z]->Ba1[5p_y](3.7699676734894645)
No.3:Ba1[5p_x]->Ba1[5p_y](3.7699676734894645)
No.3:Ba1[5s]->Ba1[5p_z](3.7699676734894645)
No.3:Ba1[6s]->Ba1[5p_z](3.7699676734894645)
No.3:Ba1[5p_y]->Ba1[5p_z](3.7699676734894645)
No.3:Ba1[5p_z]->Ba1[5p_z](3.7699676734894645)
No.3:Ba1[5p_x]->Ba1[5p_z](3.7699676734894645)
No.3:Ba1[5s]->Ba1[5p_x](3.7699676734894645)
No.3:Ba1[6s]->Ba1[5p_x](3.7699676734894645)
No.3:Ba1[5p_y]->Ba1[5p_x](3.7699676734894645)
No.3:Ba1[5p_z]->Ba1[5p_x](3.7699676734894645)
No.3:Ba1[5p_x]->Ba1[5p_x](3.7699676734894645)
No.4:Ba1->Ba1(5.3315394135569427)
No.4:Ba1[5s]->Ba1[5s](5.3315394135569427)
No.4:Ba1[6s]->Ba1[5s](5.3315394135569427)
No.4:Ba1[5p_y]->Ba1[5s](5.3315394135569427)
No.4:Ba1[5p_z]->Ba1[5s](5.3315394135569427)
No.4:Ba1[5p_x]->Ba1[5s](5.3315394135569427)
No.4:Ba1[5s]->Ba1[6s](5.3315394135569427)
No.4:Ba1[6s]->Ba1[6s](5.3315394135569427)
No.4:Ba1[5p_y]->Ba1[6s](5.3315394135569427)
No.4:Ba1[5p_z]->Ba1[6s](5.3315394135569427)
No.4:Ba1[5p_x]->Ba1[6s](5.3315394135569427)
No.4:Ba1[5s]->Ba1[5p_y](5.3315394135569427)
No.4:Ba1[6s]->Ba1[5p_y](5.3315394135569427)
No.4:Ba1[5p_y]->Ba1[5p_y](5.3315394135569427)
No.4:Ba1[5p_z]->Ba1[5p_y](5.3315394135569427)
No.4:Ba1[5p_x]->Ba1[5p_y](5.3315394135569427)
No.4:Ba1[5s]->Ba1[5p_z](5.3315394135569427)
No.4:Ba1[6s]->Ba1[5p_z](5.3315394135569427)
No.4:Ba1[5p_y]->Ba1[5p_z](5.3315394135569427)
No.4:Ba1[5p_z]->Ba1[5p_z](5.3315394135569427)
No.4:Ba1[5p_x]->Ba1[5p_z](5.3315394135569427)
No.4:Ba1[5s]->Ba1[5p_x](5.3315394135569427)
No.4:Ba1[6s]->Ba1[5p_x](5.3315394135569427)
No.4:Ba1[5p_y]->Ba1[5p_x](5.3315394135569427)
No.4:Ba1[5p_z]->Ba1[5p_x](5.3315394135569427)
No.4:Ba1[5p_x]->Ba1[5p_x](5.3315394135569427)
No.5:Ba1->Ba1(3.7699676734894645)
No.5:Ba1[5s]->Ba1[5s](3.7699676734894645)
No.5:Ba1[6s]->Ba1[5s](3.7699676734894645)
No.5:Ba1[5p_y]->Ba1[5s](3.7699676734894645)
No.5:Ba1[5p_z]->Ba1[5s](3.7699676734894645)
No.5:Ba1[5p_x]->Ba1[5s](3.7699676734894645)
No.5:Ba1[5s]->Ba1[6s](3.7699676734894645)
No.5:Ba1[6s]->Ba1[6s](3.7699676734894645)
No.5:Ba1[5p_y]->Ba1[6s](3.7699676734894645)
No.5:Ba1[5p_z]->Ba1[6s](3.7699676734894645)
No.5:Ba1[5p_x]->Ba1[6s](3.7699676734894645)
No.5:Ba1[5s]->Ba1[5p_y](3.7699676734894645)
No.5:Ba1[6s]->Ba1[5p_y](3.7699676734894645)
No.5:Ba1[5p_y]->Ba1[5p_y](3.7699676734894645)
No.5:Ba1[5p_z]->Ba1[5p_y](3.7699676734894645)
No.5:Ba1[5p_x]->Ba1[5p_y](3.7699676734894645)
No.5:Ba1[5s]->Ba1[5p_z](3.7699676734894645)
No.5:Ba1[6s]->Ba1[5p_z](3.7699676734894645)
No.5:Ba1[5p_y]->Ba1[5p_z](3.7699676734894645)
No.5:Ba1[5p_z]->Ba1[5p_z](3.7699676734894645)
No.5:Ba1[5p_x]->Ba1[5p_z](3.7699676734894645)
No.5:Ba1[5s]->Ba1[5p_x](3.7699676734894645)
No.5:Ba1[6s]->Ba1[5p_x](3.7699676734894645)
No.5:Ba1[5p_y]->Ba1[5p_x](3.7699676734894645)
No.5:Ba1[5p_z]->Ba1[5p_x](3.7699676734894645)
No.5:Ba1[5p_x]->Ba1[5p_x](3.7699676734894645)
No.6:Ba1->Ba1(3.7699676734894645)
No.6:Ba1[5s]->Ba1[5s](3.7699676734894645)
No.6:Ba1[6s]->Ba1[5s](3.7699676734894645)
No.6:Ba1[5p_y]->Ba1[5s](3.7699676734894645)
No.6:Ba1[5p_z]->Ba1[5s](3.7699676734894645)
No.6:Ba1[5p_x]->Ba1[5s](3.7699676734894645)
No.6:Ba1[5s]->Ba1[6s](3.7699676734894645)
No.6:Ba1[6s]->Ba1[6s](3.7699676734894645)
No.6:Ba1[5p_y]->Ba1[6s](3.7699676734894645)
No.6:Ba1[5p_z]->Ba1[6s](3.7699676734894645)
No.6:Ba1[5p_x]->Ba1[6s](3.7699676734894645)
No.6:Ba1[5s]->Ba1[5p_y](3.7699676734894645)
No.6:Ba1[6s]->Ba1[5p_y](3.7699676734894645)
No.6:Ba1[5p_y]->Ba1[5p_y](3.7699676734894645)
No.6:Ba1[5p_z]->Ba1[5p_y](3.7699676734894645)
No.6:Ba1[5p_x]->Ba1[5p_y](3.7699676734894645)
No.6:Ba1[5s]->Ba1[5p_z](3.7699676734894645)
No.6:Ba1[6s]->Ba1[5p_z](3.7699676734894645)
No.6:Ba1[5p_y]->Ba1[5p_z](3.7699676734894645)
No.6:Ba1[5p_z]->Ba1[5p_z](3.7699676734894645)
No.6:Ba1[5p_x]->Ba1[5p_z](3.7699676734894645)
No.6:Ba1[5s]->Ba1[5p_x](3.7699676734894645)
No.6:Ba1[6s]->Ba1[5p_x](3.7699676734894645)
No.6:Ba1[5p_y]->Ba1[5p_x](3.7699676734894645)
No.6:Ba1[5p_z]->Ba1[5p_x](3.7699676734894645)
No.6:Ba1[5p_x]->Ba1[5p_x](3.7699676734894645)
No.7:Ba1->Ba1(5.3315394135569427)
No.7:Ba1[5s]->Ba1[5s](5.3315394135569427)
No.7:Ba1[6s]->Ba1[5s](5.3315394135569427)
No.7:Ba1[5p_y]->Ba1[5s](5.3315394135569427)
No.7:Ba1[5p_z]->Ba1[5s](5.3315394135569427)
No.7:Ba1[5p_x]->Ba1[5s](5.3315394135569427)
No.7:Ba1[5s]->Ba1[6s](5.3315394135569427)
No.7:Ba1[6s]->Ba1[6s](5.3315394135569427)
No.7:Ba1[5p_y]->Ba1[6s](5.3315394135569427)
No.7:Ba1[5p_z]->Ba1[6s](5.3315394135569427)
No.7:Ba1[5p_x]->Ba1[6s](5.3315394135569427)
No.7:Ba1[5s]->Ba1[5p_y](5.3315394135569427)
No.7:Ba1[6s]->Ba1[5p_y](5.3315394135569427)
No.7:Ba1[5p_y]->Ba1[5p_y](5.3315394135569427)
No.7:Ba1[5p_z]->Ba1[5p_y](5.3315394135569427)
No.7:Ba1[5p_x]->Ba1[5p_y](5.3315394135569427)
No.7:Ba1[5s]->Ba1[5p_z](5.3315394135569427)
No.7:Ba1[6s]->Ba1[5p_z](5.3315394135569427)
No.7:Ba1[5p_y]->Ba1[5p_z](5.3315394135569427)
No.7:Ba1[5p_z]->Ba1[5p_z](5.3315394135569427)
No.7:Ba1[5p_x]->Ba1[5p_z](5.3315394135569427)
No.7:Ba1[5s]->Ba1[5p_x](5.3315394135569427)
No.7:Ba1[6s]->Ba1[5p_x](5.3315394135569427)
No.7:Ba1[5p_y]->Ba1[5p_x](5.3315394135569427)
No.7:Ba1[5p_z]->Ba1[5p_x](5.3315394135569427)
No.7:Ba1[5p_x]->Ba1[5p_x](5.3315394135569427)
No.8:Ba1->Ba1(3.7699676734894645)
No.8:Ba1[5s]->Ba1[5s](3.7699676734894645)
No.8:Ba1[6s]->Ba1[5s](3.7699676734894645)
No.8:Ba1[5p_y]->Ba1[5s](3.7699676734894645)
No.8:Ba1[5p_z]->Ba1[5s](3.7699676734894645)
No.8:Ba1[5p_x]->Ba1[5s](3.7699676734894645)
No.8:Ba1[5s]->Ba1[6s](3.7699676734894645)
No.8:Ba1[6s]->Ba1[6s](3.7699676734894645)
No.8:Ba1[5p_y]->Ba1[6s](3.7699676734894645)
No.8:Ba1[5p_z]->Ba1[6s](3.7699676734894645)
No.8:Ba1[5p_x]->Ba1[6s](3.7699676734894645)
No.8:Ba1[5s]->Ba1[5p_y](3.7699676734894645)
No.8:Ba1[6s]->Ba1[5p_y](3.7699676734894645)
No.8:Ba1[5p_y]->Ba1[5p_y](3.7699676734894645)
No.8:Ba1[5p_z]->Ba1[5p_y](3.7699676734894645)
No.8:Ba1[5p_x]->Ba1[5p_y](3.7699676734894645)
No.8:Ba1[5s]->Ba1[5p_z](3.7699676734894645)
No.8:Ba1[6s]->Ba1[5p_z](3.7699676734894645)
No.8:Ba1[5p_y]->Ba1[5p_z](3.7699676734894645)
No.8:Ba1[5p_z]->Ba1[5p_z](3.7699676734894645)
No.8:Ba1[5p_x]->Ba1[5p_z](3.7699676734894645)
No.8:Ba1[5s]->Ba1[5p_x](3.7699676734894645)
No.8:Ba1[6s]->Ba1[5p_x](3.7699676734894645)
No.8:Ba1[5p_y]->Ba1[5p_x](3.7699676734894645)
No.8:Ba1[5p_z]->Ba1[5p_x](3.7699676734894645)
No.8:Ba1[5p_x]->Ba1[5p_x](3.7699676734894645)
No.9:Ba1->Ba1(5.3315394135569463)
No.9:Ba1[5s]->Ba1[5s](5.3315394135569463)
No.9:Ba1[6s]->Ba1[5s](5.3315394135569463)
No.9:Ba1[5p_y]->Ba1[5s](5.3315394135569463)
No.9:Ba1[5p_z]->Ba1[5s](5.3315394135569463)
No.9:Ba1[5p_x]->Ba1[5s](5.3315394135569463)
No.9:Ba1[5s]->Ba1[6s](5.3315394135569463)
No.9:Ba1[6s]->Ba1[6s](5.3315394135569463)
No.9:Ba1[5p_y]->Ba1[6s](5.3315394135569463)
No.9:Ba1[5p_z]->Ba1[6s](5.3315394135569463)
No.9:Ba1[5p_x]->Ba1[6s](5.3315394135569463)
No.9:Ba1[5s]->Ba1[5p_y](5.3315394135569463)
No.9:Ba1[6s]->Ba1[5p_y](5.3315394135569463)
No.9:Ba1[5p_y]->Ba1[5p_y](5.3315394135569463)
No.9:Ba1[5p_z]->Ba1[5p_y](5.3315394135569463)
No.9:Ba1[5p_x]->Ba1[5p_y](5.3315394135569463)
No.9:Ba1[5s]->Ba1[5p_z](5.3315394135569463)
No.9:Ba1[6s]->Ba1[5p_z](5.3315394135569463)
No.9:Ba1[5p_y]->Ba1[5p_z](5.3315394135569463)
No.9:Ba1[5p_z]->Ba1[5p_z](5.3315394135569463)
No.9:Ba1[5p_x]->Ba1[5p_z](5.3315394135569463)
No.9:Ba1[5s]->Ba1[5p_x](5.3315394135569463)
No.9:Ba1[6s]->Ba1[5p_x](5.3315394135569463)
No.9:Ba1[5p_y]->Ba1[5p_x](5.3315394135569463)
No.9:Ba1[5p_z]->Ba1[5p_x](5.3315394135569463)
No.9:Ba1[5p_x]->Ba1[5p_x](5.3315394135569463)
No.10:Ba1->Ba1(5.0547580007260491)
No.10:Ba1[5s]->Ba1[5s](5.0547580007260491)
No.10:Ba1[6s]->Ba1[5s](5.0547580007260491)
No.10:Ba1[5p_y]->Ba1[5s](5.0547580007260491)
No.10:Ba1[5p_z]->Ba1[5s](5.0547580007260491)
No.10:Ba1[5p_x]->Ba1[5s](5.0547580007260491)
No.10:Ba1[5s]->Ba1[6s](5.0547580007260491)
No.10:Ba1[6s]->Ba1[6s](5.0547580007260491)
No.10:Ba1[5p_y]->Ba1[6s](5.0547580007260491)
No.10:Ba1[5p_z]->Ba1[6s](5.0547580007260491)
No.10:Ba1[5p_x]->Ba1[6s](5.0547580007260491)
No.10:Ba1[5s]->Ba1[5p_y](5.0547580007260491)
No.10:Ba1[6s]->Ba1[5p_y](5.0547580007260491)
No.10:Ba1[5p_y]->Ba1[5p_y](5.0547580007260491)
No.10:Ba1[5p_z]->Ba1[5p_y](5.0547580007260491)
No.10:Ba1[5p_x]->Ba1[5p_y](5.0547580007260491)
No.10:Ba1[5s]->Ba1[5p_z](5.0547580007260491)
No.10:Ba1[6s]->Ba1[5p_z](5.0547580007260491)
No.10:Ba1[5p_y]->Ba1[5p_z](5.0547580007260491)
No.10:Ba1[5p_z]->Ba1[5p_z](5.0547580007260491)
No.10:Ba1[5p_x]->Ba1[5p_z](5.0547580007260491)
No.10:Ba1[5s]->Ba1[5p_x](5.0547580007260491)
No.10:Ba1[6s]->Ba1[5p_x](5.0547580007260491)
No.10:Ba1[5p_y]->Ba1[5p_x](5.0547580007260491)
No.10:Ba1[5p_z]->Ba1[5p_x](5.0547580007260491)
No.10:Ba1[5p_x]->Ba1[5p_x](5.0547580007260491)
No.11:Ti2->Ba1(3.6409845068686013)
No.11:Ti2[3s]->Ba1[5s](3.6409845068686013)
No.11:Ti2[4s]->Ba1[5s](3.6409845068686013)
No.11:Ti2[3p_y]->Ba1[5s](3.6409845068686013)
No.11:Ti2[3p_z]->Ba1[5s](3.6409845068686013)
No.11:Ti2[3p_x]->Ba1[5s](3.6409845068686013)
No.11:Ti2[3d_xy]->Ba1[5s](3.6409845068686013)
No.11:Ti2[3d_yz]->Ba1[5s](3.6409845068686013)
No.11:Ti2[3d_z^2]->Ba1[5s](3.6409845068686013)
No.11:Ti2[3d_xz]->Ba1[5s](3.6409845068686013)
No.11:Ti2[3d_x^2-y^2]->Ba1[5s](3.6409845068686013)
No.11:Ti2[3s]->Ba1[6s](3.6409845068686013)
No.11:Ti2[4s]->Ba1[6s](3.6409845068686013)
No.11:Ti2[3p_y]->Ba1[6s](3.6409845068686013)
No.11:Ti2[3p_z]->Ba1[6s](3.6409845068686013)
No.11:Ti2[3p_x]->Ba1[6s](3.6409845068686013)
No.11:Ti2[3d_xy]->Ba1[6s](3.6409845068686013)
No.11:Ti2[3d_yz]->Ba1[6s](3.6409845068686013)
No.11:Ti2[3d_z^2]->Ba1[6s](3.6409845068686013)
No.11:Ti2[3d_xz]->Ba1[6s](3.6409845068686013)
No.11:Ti2[3d_x^2-y^2]->Ba1[6s](3.6409845068686013)
No.11:Ti2[3s]->Ba1[5p_y](3.6409845068686013)
No.11:Ti2[4s]->Ba1[5p_y](3.6409845068686013)
No.11:Ti2[3p_y]->Ba1[5p_y](3.6409845068686013)
No.11:Ti2[3p_z]->Ba1[5p_y](3.6409845068686013)
No.11:Ti2[3p_x]->Ba1[5p_y](3.6409845068686013)
No.11:Ti2[3d_xy]->Ba1[5p_y](3.6409845068686013)
No.11:Ti2[3d_yz]->Ba1[5p_y](3.6409845068686013)
No.11:Ti2[3d_z^2]->Ba1[5p_y](3.6409845068686013)
No.11:Ti2[3d_xz]->Ba1[5p_y](3.6409845068686013)
No.11:Ti2[3d_x^2-y^2]->Ba1[5p_y](3.6409845068686013)
No.11:Ti2[3s]->Ba1[5p_z](3.6409845068686013)
No.11:Ti2[4s]->Ba1[5p_z](3.6409845068686013)
No.11:Ti2[3p_y]->Ba1[5p_z](3.6409845068686013)
No.11:Ti2[3p_z]->Ba1[5p_z](3.6409845068686013)
No.11:Ti2[3p_x]->Ba1[5p_z](3.6409845068686013)
No.11:Ti2[3d_xy]->Ba1[5p_z](3.6409845068686013)
No.11:Ti2[3d_yz]->Ba1[5p_z](3.6409845068686013)
No.11:Ti2[3d_z^2]->Ba1[5p_z](3.6409845068686013)
No.11:Ti2[3d_xz]->Ba1[5p_z](3.6409845068686013)
No.11:Ti2[3d_x^2-y^2]->Ba1[5p_z](3.6409845068686013)
No.11:Ti2[3s]->Ba1[5p_x](3.6409845068686013)
No.11:Ti2[4s]->Ba1[5p_x](3.6409845068686013)
No.11:Ti2[3p_y]->Ba1[5p_x](3.6409845068686013)
No.11:Ti2[3p_z]->Ba1[5p_x](3.6409845068686013)
No.11:Ti2[3p_x]->Ba1[5p_x](3.6409845068686013)
No.11:Ti2[3d_xy]->Ba1[5p_x](3.6409845068686013)
No.11:Ti2[3d_yz]->Ba1[5p_x](3.6409845068686013)
No.11:Ti2[3d_z^2]->Ba1[5p_x](3.6409845068686013)
No.11:Ti2[3d_xz]->Ba1[5p_x](3.6409845068686013)
No.11:Ti2[3d_x^2-y^2]->Ba1[5p_x](3.6409845068686013)
No.12:Ti2->Ba1(3.6409845068686009)
No.12:Ti2[3s]->Ba1[5s](3.6409845068686009)
No.12:Ti2[4s]->Ba1[5s](3.6409845068686009)
No.12:Ti2[3p_y]->Ba1[5s](3.6409845068686009)
No.12:Ti2[3p_z]->Ba1[5s](3.6409845068686009)
No.12:Ti2[3p_x]->Ba1[5s](3.6409845068686009)
No.12:Ti2[3d_xy]->Ba1[5s](3.6409845068686009)
No.12:Ti2[3d_yz]->Ba1[5s](3.6409845068686009)
No.12:Ti2[3d_z^2]->Ba1[5s](3.6409845068686009)
No.12:Ti2[3d_xz]->Ba1[5s](3.6409845068686009)
No.12:Ti2[3d_x^2-y^2]->Ba1[5s](3.6409845068686009)
No.12:Ti2[3s]->Ba1[6s](3.6409845068686009)
No.12:Ti2[4s]->Ba1[6s](3.6409845068686009)
No.12:Ti2[3p_y]->Ba1[6s](3.6409845068686009)
No.12:Ti2[3p_z]->Ba1[6s](3.6409845068686009)
No.12:Ti2[3p_x]->Ba1[6s](3.6409845068686009)
No.12:Ti2[3d_xy]->Ba1[6s](3.6409845068686009)
No.12:Ti2[3d_yz]->Ba1[6s](3.6409845068686009)
No.12:Ti2[3d_z^2]->Ba1[6s](3.6409845068686009)
No.12:Ti2[3d_xz]->Ba1[6s](3.6409845068686009)
No.12:Ti2[3d_x^2-y^2]->Ba1[6s](3.6409845068686009)
No.12:Ti2[3s]->Ba1[5p_y](3.6409845068686009)
No.12:Ti2[4s]->Ba1[5p_y](3.6409845068686009)
No.12:Ti2[3p_y]->Ba1[5p_y](3.6409845068686009)
No.12:Ti2[3p_z]->Ba1[5p_y](3.6409845068686009)
No.12:Ti2[3p_x]->Ba1[5p_y](3.6409845068686009)
No.12:Ti2[3d_xy]->Ba1[5p_y](3.6409845068686009)
No.12:Ti2[3d_yz]->Ba1[5p_y](3.6409845068686009)
No.12:Ti2[3d_z^2]->Ba1[5p_y](3.6409845068686009)
No.12:Ti2[3d_xz]->Ba1[5p_y](3.6409845068686009)
No.12:Ti2[3d_x^2-y^2]->Ba1[5p_y](3.6409845068686009)
No.12:Ti2[3s]->Ba1[5p_z](3.6409845068686009)
No.12:Ti2[4s]->Ba1[5p_z](3.6409845068686009)
No.12:Ti2[3p_y]->Ba1[5p_z](3.6409845068686009)
No.12:Ti2[3p_z]->Ba1[5p_z](3.6409845068686009)
No.12:Ti2[3p_x]->Ba1[5p_z](3.6409845068686009)
No.12:Ti2[3d_xy]->Ba1[5p_z](3.6409845068686009)
No.12:Ti2[3d_yz]->Ba1[5p_z](3.6409845068686009)
No.12:Ti2[3d_z^2]->Ba1[5p_z](3.6409845068686009)
No.12:Ti2[3d_xz]->Ba1[5p_z](3.6409845068686009)
No.12:Ti2[3d_x^2-y^2]->Ba1[5p_z](3.6409845068686009)
No.12:Ti2[3s]->Ba1[5p_x](3.6409845068686009)
No.12:Ti2[4s]->Ba1[5p_x](3.6409845068686009)
No.12:Ti2[3p_y]->Ba1[5p_x](3.6409845068686009)
No.12:Ti2[3p_z]->Ba1[5p_x](3.6409845068686009)
No.12:Ti2[3p_x]->Ba1[5p_x](3.6409845068686009)
No.12:Ti2[3d_xy]->Ba1[5p_x](3.6409845068686009)
No.12:Ti2[3d_yz]->Ba1[5p_x](3.6409845068686009)
No.12:Ti2[3d_z^2]->Ba1[5p_x](3.6409845068686009)
No.12:Ti2[3d_xz]->Ba1[5p_x](3.6409845068686009)
No.12:Ti2[3d_x^2-y^2]->Ba1[5p_x](3.6409845068686009)
No.13:Ti2->Ba1(3.6409845068686022)
No.13:Ti2[3s]->Ba1[5s](3.6409845068686022)
No.13:Ti2[4s]->Ba1[5s](3.6409845068686022)
No.13:Ti2[3p_y]->Ba1[5s](3.6409845068686022)
No.13:Ti2[3p_z]->Ba1[5s](3.6409845068686022)
No.13:Ti2[3p_x]->Ba1[5s](3.6409845068686022)
No.13:Ti2[3d_xy]->Ba1[5s](3.6409845068686022)
No.13:Ti2[3d_yz]->Ba1[5s](3.6409845068686022)
No.13:Ti2[3d_z^2]->Ba1[5s](3.6409845068686022)
No.13:Ti2[3d_xz]->Ba1[5s](3.6409845068686022)
No.13:Ti2[3d_x^2-y^2]->Ba1[5s](3.6409845068686022)
No.13:Ti2[3s]->Ba1[6s](3.6409845068686022)
No.13:Ti2[4s]->Ba1[6s](3.6409845068686022)
No.13:Ti2[3p_y]->Ba1[6s](3.6409845068686022)
No.13:Ti2[3p_z]->Ba1[6s](3.6409845068686022)
No.13:Ti2[3p_x]->Ba1[6s](3.6409845068686022)
No.13:Ti2[3d_xy]->Ba1[6s](3.6409845068686022)
No.13:Ti2[3d_yz]->Ba1[6s](3.6409845068686022)
No.13:Ti2[3d_z^2]->Ba1[6s](3.6409845068686022)
No.13:Ti2[3d_xz]->Ba1[6s](3.6409845068686022)
No.13:Ti2[3d_x^2-y^2]->Ba1[6s](3.6409845068686022)
No.13:Ti2[3s]->Ba1[5p_y](3.6409845068686022)
No.13:Ti2[4s]->Ba1[5p_y](3.6409845068686022)
No.13:Ti2[3p_y]->Ba1[5p_y](3.6409845068686022)
No.13:Ti2[3p_z]->Ba1[5p_y](3.6409845068686022)
No.13:Ti2[3p_x]->Ba1[5p_y](3.6409845068686022)
No.13:Ti2[3d_xy]->Ba1[5p_y](3.6409845068686022)
No.13:Ti2[3d_yz]->Ba1[5p_y](3.6409845068686022)
No.13:Ti2[3d_z^2]->Ba1[5p_y](3.6409845068686022)
No.13:Ti2[3d_xz]->Ba1[5p_y](3.6409845068686022)
No.13:Ti2[3d_x^2-y^2]->Ba1[5p_y](3.6409845068686022)
No.13:Ti2[3s]->Ba1[5p_z](3.6409845068686022)
No.13:Ti2[4s]->Ba1[5p_z](3.6409845068686022)
No.13:Ti2[3p_y]->Ba1[5p_z](3.6409845068686022)
No.13:Ti2[3p_z]->Ba1[5p_z](3.6409845068686022)
No.13:Ti2[3p_x]->Ba1[5p_z](3.6409845068686022)
No.13:Ti2[3d_xy]->Ba1[5p_z](3.6409845068686022)
No.13:Ti2[3d_yz]->Ba1[5p_z](3.6409845068686022)
No.13:Ti2[3d_z^2]->Ba1[5p_z](3.6409845068686022)
No.13:Ti2[3d_xz]->Ba1[5p_z](3.6409845068686022)
No.13:Ti2[3d_x^2-y^2]->Ba1[5p_z](3.6409845068686022)
No.13:Ti2[3s]->Ba1[5p_x](3.6409845068686022)
No.13:Ti2[4s]->Ba1[5p_x](3.6409845068686022)
No.13:Ti2[3p_y]->Ba1[5p_x](3.6409845068686022)
No.13:Ti2[3p_z]->Ba1[5p_x](3.6409845068686022)
No.13:Ti2[3p_x]->Ba1[5p_x](3.6409845068686022)
No.13:Ti2[3d_xy]->Ba1[5p_x](3.6409845068686022)
No.13:Ti2[3d_yz]->Ba1[5p_x](3.6409845068686022)
No.13:Ti2[3d_z^2]->Ba1[5p_x](3.6409845068686022)
No.13:Ti2[3d_xz]->Ba1[5p_x](3.6409845068686022)
No.13:Ti2[3d_x^2-y^2]->Ba1[5p_x](3.6409845068686022)
No.14:Ti2->Ba1(3.6409845068686044)
No.14:Ti2[3s]->Ba1[5s](3.6409845068686044)
No.14:Ti2[4s]->Ba1[5s](3.6409845068686044)
No.14:Ti2[3p_y]->Ba1[5s](3.6409845068686044)
No.14:Ti2[3p_z]->Ba1[5s](3.6409845068686044)
No.14:Ti2[3p_x]->Ba1[5s](3.6409845068686044)
No.14:Ti2[3d_xy]->Ba1[5s](3.6409845068686044)
No.14:Ti2[3d_yz]->Ba1[5s](3.6409845068686044)
No.14:Ti2[3d_z^2]->Ba1[5s](3.6409845068686044)
No.14:Ti2[3d_xz]->Ba1[5s](3.6409845068686044)
No.14:Ti2[3d_x^2-y^2]->Ba1[5s](3.6409845068686044)
No.14:Ti2[3s]->Ba1[6s](3.6409845068686044)
No.14:Ti2[4s]->Ba1[6s](3.6409845068686044)
No.14:Ti2[3p_y]->Ba1[6s](3.6409845068686044)
No.14:Ti2[3p_z]->Ba1[6s](3.6409845068686044)
No.14:Ti2[3p_x]->Ba1[6s](3.6409845068686044)
No.14:Ti2[3d_xy]->Ba1[6s](3.6409845068686044)
No.14:Ti2[3d_yz]->Ba1[6s](3.6409845068686044)
No.14:Ti2[3d_z^2]->Ba1[6s](3.6409845068686044)
No.14:Ti2[3d_xz]->Ba1[6s](3.6409845068686044)
No.14:Ti2[3d_x^2-y^2]->Ba1[6s](3.6409845068686044)
No.14:Ti2[3s]->Ba1[5p_y](3.6409845068686044)
No.14:Ti2[4s]->Ba1[5p_y](3.6409845068686044)
No.14:Ti2[3p_y]->Ba1[5p_y](3.6409845068686044)
No.14:Ti2[3p_z]->Ba1[5p_y](3.6409845068686044)
No.14:Ti2[3p_x]->Ba1[5p_y](3.6409845068686044)
No.14:Ti2[3d_xy]->Ba1[5p_y](3.6409845068686044)
No.14:Ti2[3d_yz]->Ba1[5p_y](3.6409845068686044)
No.14:Ti2[3d_z^2]->Ba1[5p_y](3.6409845068686044)
No.14:Ti2[3d_xz]->Ba1[5p_y](3.6409845068686044)
No.14:Ti2[3d_x^2-y^2]->Ba1[5p_y](3.6409845068686044)
No.14:Ti2[3s]->Ba1[5p_z](3.6409845068686044)
No.14:Ti2[4s]->Ba1[5p_z](3.6409845068686044)
No.14:Ti2[3p_y]->Ba1[5p_z](3.6409845068686044)
No.14:Ti2[3p_z]->Ba1[5p_z](3.6409845068686044)
No.14:Ti2[3p_x]->Ba1[5p_z](3.6409845068686044)
No.14:Ti2[3d_xy]->Ba1[5p_z](3.6409845068686044)
No.14:Ti2[3d_yz]->Ba1[5p_z](3.6409845068686044)
No.14:Ti2[3d_z^2]->Ba1[5p_z](3.6409845068686044)
No.14:Ti2[3d_xz]->Ba1[5p_z](3.6409845068686044)
No.14:Ti2[3d_x^2-y^2]->Ba1[5p_z](3.6409845068686044)
No.14:Ti2[3s]->Ba1[5p_x](3.6409845068686044)
No.14:Ti2[4s]->Ba1[5p_x](3.6409845068686044)
No.14:Ti2[3p_y]->Ba1[5p_x](3.6409845068686044)
No.14:Ti2[3p_z]->Ba1[5p_x](3.6409845068686044)
No.14:Ti2[3p_x]->Ba1[5p_x](3.6409845068686044)
No.14:Ti2[3d_xy]->Ba1[5p_x](3.6409845068686044)
No.14:Ti2[3d_yz]->Ba1[5p_x](3.6409845068686044)
No.14:Ti2[3d_z^2]->Ba1[5p_x](3.6409845068686044)
No.14:Ti2[3d_xz]->Ba1[5p_x](3.6409845068686044)
No.14:Ti2[3d_x^2-y^2]->Ba1[5p_x](3.6409845068686044)
No.15:Ti2->Ba1(3.7061658505902062)
No.15:Ti2[3s]->Ba1[5s](3.7061658505902062)
No.15:Ti2[4s]->Ba1[5s](3.7061658505902062)
No.15:Ti2[3p_y]->Ba1[5s](3.7061658505902062)
No.15:Ti2[3p_z]->Ba1[5s](3.7061658505902062)
No.15:Ti2[3p_x]->Ba1[5s](3.7061658505902062)
No.15:Ti2[3d_xy]->Ba1[5s](3.7061658505902062)
No.15:Ti2[3d_yz]->Ba1[5s](3.7061658505902062)
No.15:Ti2[3d_z^2]->Ba1[5s](3.7061658505902062)
No.15:Ti2[3d_xz]->Ba1[5s](3.7061658505902062)
No.15:Ti2[3d_x^2-y^2]->Ba1[5s](3.7061658505902062)
No.15:Ti2[3s]->Ba1[6s](3.7061658505902062)
No.15:Ti2[4s]->Ba1[6s](3.7061658505902062)
No.15:Ti2[3p_y]->Ba1[6s](3.7061658505902062)
No.15:Ti2[3p_z]->Ba1[6s](3.7061658505902062)
No.15:Ti2[3p_x]->Ba1[6s](3.7061658505902062)
No.15:Ti2[3d_xy]->Ba1[6s](3.7061658505902062)
No.15:Ti2[3d_yz]->Ba1[6s](3.7061658505902062)
No.15:Ti2[3d_z^2]->Ba1[6s](3.7061658505902062)
No.15:Ti2[3d_xz]->Ba1[6s](3.7061658505902062)
No.15:Ti2[3d_x^2-y^2]->Ba1[6s](3.7061658505902062)
No.15:Ti2[3s]->Ba1[5p_y](3.7061658505902062)
No.15:Ti2[4s]->Ba1[5p_y](3.7061658505902062)
No.15:Ti2[3p_y]->Ba1[5p_y](3.7061658505902062)
No.15:Ti2[3p_z]->Ba1[5p_y](3.7061658505902062)
No.15:Ti2[3p_x]->Ba1[5p_y](3.7061658505902062)
No.15:Ti2[3d_xy]->Ba1[5p_y](3.7061658505902062)
No.15:Ti2[3d_yz]->Ba1[5p_y](3.7061658505902062)
No.15:Ti2[3d_z^2]->Ba1[5p_y](3.7061658505902062)
No.15:Ti2[3d_xz]->Ba1[5p_y](3.7061658505902062)
No.15:Ti2[3d_x^2-y^2]->Ba1[5p_y](3.7061658505902062)
No.15:Ti2[3s]->Ba1[5p_z](3.7061658505902062)
No.15:Ti2[4s]->Ba1[5p_z](3.7061658505902062)
No.15:Ti2[3p_y]->Ba1[5p_z](3.7061658505902062)
No.15:Ti2[3p_z]->Ba1[5p_z](3.7061658505902062)
No.15:Ti2[3p_x]->Ba1[5p_z](3.7061658505902062)
No.15:Ti2[3d_xy]->Ba1[5p_z](3.7061658505902062)
No.15:Ti2[3d_yz]->Ba1[5p_z](3.7061658505902062)
No.15:Ti2[3d_z^2]->Ba1[5p_z](3.7061658505902062)
No.15:Ti2[3d_xz]->Ba1[5p_z](3.7061658505902062)
No.15:Ti2[3d_x^2-y^2]->Ba1[5p_z](3.7061658505902062)
No.15:Ti2[3s]->Ba1[5p_x](3.7061658505902062)
No.15:Ti2[4s]->Ba1[5p_x](3.7061658505902062)
No.15:Ti2[3p_y]->Ba1[5p_x](3.7061658505902062)
No.15:Ti2[3p_z]->Ba1[5p_x](3.7061658505902062)
No.15:Ti2[3p_x]->Ba1[5p_x](3.7061658505902062)
No.15:Ti2[3d_xy]->Ba1[5p_x](3.7061658505902062)
No.15:Ti2[3d_yz]->Ba1[5p_x](3.7061658505902062)
No.15:Ti2[3d_z^2]->Ba1[5p_x](3.7061658505902062)
No.15:Ti2[3d_xz]->Ba1[5p_x](3.7061658505902062)
No.15:Ti2[3d_x^2-y^2]->Ba1[5p_x](3.7061658505902062)
No.16:Ti2->Ba1(3.706165850590204)
No.16:Ti2[3s]->Ba1[5s](3.706165850590204)
No.16:Ti2[4s]->Ba1[5s](3.706165850590204)
No.16:Ti2[3p_y]->Ba1[5s](3.706165850590204)
No.16:Ti2[3p_z]->Ba1[5s](3.706165850590204)
No.16:Ti2[3p_x]->Ba1[5s](3.706165850590204)
No.16:Ti2[3d_xy]->Ba1[5s](3.706165850590204)
No.16:Ti2[3d_yz]->Ba1[5s](3.706165850590204)
No.16:Ti2[3d_z^2]->Ba1[5s](3.706165850590204)
No.16:Ti2[3d_xz]->Ba1[5s](3.706165850590204)
No.16:Ti2[3d_x^2-y^2]->Ba1[5s](3.706165850590204)
No.16:Ti2[3s]->Ba1[6s](3.706165850590204)
No.16:Ti2[4s]->Ba1[6s](3.706165850590204)
No.16:Ti2[3p_y]->Ba1[6s](3.706165850590204)
No.16:Ti2[3p_z]->Ba1[6s](3.706165850590204)
No.16:Ti2[3p_x]->Ba1[6s](3.706165850590204)
No.16:Ti2[3d_xy]->Ba1[6s](3.706165850590204)
No.16:Ti2[3d_yz]->Ba1[6s](3.706165850590204)
No.16:Ti2[3d_z^2]->Ba1[6s](3.706165850590204)
No.16:Ti2[3d_xz]->Ba1[6s](3.706165850590204)
No.16:Ti2[3d_x^2-y^2]->Ba1[6s](3.706165850590204)
No.16:Ti2[3s]->Ba1[5p_y](3.706165850590204)
No.16:Ti2[4s]->Ba1[5p_y](3.706165850590204)
No.16:Ti2[3p_y]->Ba1[5p_y](3.706165850590204)
No.16:Ti2[3p_z]->Ba1[5p_y](3.706165850590204)
No.16:Ti2[3p_x]->Ba1[5p_y](3.706165850590204)
No.16:Ti2[3d_xy]->Ba1[5p_y](3.706165850590204)
No.16:Ti2[3d_yz]->Ba1[5p_y](3.706165850590204)
No.16:Ti2[3d_z^2]->Ba1[5p_y](3.706165850590204)
No.16:Ti2[3d_xz]->Ba1[5p_y](3.706165850590204)
No.16:Ti2[3d_x^2-y^2]->Ba1[5p_y](3.706165850590204)
No.16:Ti2[3s]->Ba1[5p_z](3.706165850590204)
No.16:Ti2[4s]->Ba1[5p_z](3.706165850590204)
No.16:Ti2[3p_y]->Ba1[5p_z](3.706165850590204)
No.16:Ti2[3p_z]->Ba1[5p_z](3.706165850590204)
No.16:Ti2[3p_x]->Ba1[5p_z](3.706165850590204)
No.16:Ti2[3d_xy]->Ba1[5p_z](3.706165850590204)
No.16:Ti2[3d_yz]->Ba1[5p_z](3.706165850590204)
No.16:Ti2[3d_z^2]->Ba1[5p_z](3.706165850590204)
No.16:Ti2[3d_xz]->Ba1[5p_z](3.706165850590204)
No.16:Ti2[3d_x^2-y^2]->Ba1[5p_z](3.706165850590204)
No.16:Ti2[3s]->Ba1[5p_x](3.706165850590204)
No.16:Ti2[4s]->Ba1[5p_x](3.706165850590204)
No.16:Ti2[3p_y]->Ba1[5p_x](3.706165850590204)
No.16:Ti2[3p_z]->Ba1[5p_x](3.706165850590204)
No.16:Ti2[3p_x]->Ba1[5p_x](3.706165850590204)
No.16:Ti2[3d_xy]->Ba1[5p_x](3.706165850590204)
No.16:Ti2[3d_yz]->Ba1[5p_x](3.706165850590204)
No.16:Ti2[3d_z^2]->Ba1[5p_x](3.706165850590204)
No.16:Ti2[3d_xz]->Ba1[5p_x](3.706165850590204)
No.16:Ti2[3d_x^2-y^2]->Ba1[5p_x](3.706165850590204)
No.17:Ti2->Ba1(3.7061658505902026)
No.17:Ti2[3s]->Ba1[5s](3.7061658505902026)
No.17:Ti2[4s]->Ba1[5s](3.7061658505902026)
No.17:Ti2[3p_y]->Ba1[5s](3.7061658505902026)
No.17:Ti2[3p_z]->Ba1[5s](3.7061658505902026)
No.17:Ti2[3p_x]->Ba1[5s](3.7061658505902026)
No.17:Ti2[3d_xy]->Ba1[5s](3.7061658505902026)
No.17:Ti2[3d_yz]->Ba1[5s](3.7061658505902026)
No.17:Ti2[3d_z^2]->Ba1[5s](3.7061658505902026)
No.17:Ti2[3d_xz]->Ba1[5s](3.7061658505902026)
No.17:Ti2[3d_x^2-y^2]->Ba1[5s](3.7061658505902026)
No.17:Ti2[3s]->Ba1[6s](3.7061658505902026)
No.17:Ti2[4s]->Ba1[6s](3.7061658505902026)
No.17:Ti2[3p_y]->Ba1[6s](3.7061658505902026)
No.17:Ti2[3p_z]->Ba1[6s](3.7061658505902026)
No.17:Ti2[3p_x]->Ba1[6s](3.7061658505902026)
No.17:Ti2[3d_xy]->Ba1[6s](3.7061658505902026)
No.17:Ti2[3d_yz]->Ba1[6s](3.7061658505902026)
No.17:Ti2[3d_z^2]->Ba1[6s](3.7061658505902026)
No.17:Ti2[3d_xz]->Ba1[6s](3.7061658505902026)
No.17:Ti2[3d_x^2-y^2]->Ba1[6s](3.7061658505902026)
No.17:Ti2[3s]->Ba1[5p_y](3.7061658505902026)
No.17:Ti2[4s]->Ba1[5p_y](3.7061658505902026)
No.17:Ti2[3p_y]->Ba1[5p_y](3.7061658505902026)
No.17:Ti2[3p_z]->Ba1[5p_y](3.7061658505902026)
No.17:Ti2[3p_x]->Ba1[5p_y](3.7061658505902026)
No.17:Ti2[3d_xy]->Ba1[5p_y](3.7061658505902026)
No.17:Ti2[3d_yz]->Ba1[5p_y](3.7061658505902026)
No.17:Ti2[3d_z^2]->Ba1[5p_y](3.7061658505902026)
No.17:Ti2[3d_xz]->Ba1[5p_y](3.7061658505902026)
No.17:Ti2[3d_x^2-y^2]->Ba1[5p_y](3.7061658505902026)
No.17:Ti2[3s]->Ba1[5p_z](3.7061658505902026)
No.17:Ti2[4s]->Ba1[5p_z](3.7061658505902026)
No.17:Ti2[3p_y]->Ba1[5p_z](3.7061658505902026)
No.17:Ti2[3p_z]->Ba1[5p_z](3.7061658505902026)
No.17:Ti2[3p_x]->Ba1[5p_z](3.7061658505902026)
No.17:Ti2[3d_xy]->Ba1[5p_z](3.7061658505902026)
No.17:Ti2[3d_yz]->Ba1[5p_z](3.7061658505902026)
No.17:Ti2[3d_z^2]->Ba1[5p_z](3.7061658505902026)
No.17:Ti2[3d_xz]->Ba1[5p_z](3.7061658505902026)
No.17:Ti2[3d_x^2-y^2]->Ba1[5p_z](3.7061658505902026)
No.17:Ti2[3s]->Ba1[5p_x](3.7061658505902026)
No.17:Ti2[4s]->Ba1[5p_x](3.7061658505902026)
No.17:Ti2[3p_y]->Ba1[5p_x](3.7061658505902026)
No.17:Ti2[3p_z]->Ba1[5p_x](3.7061658505902026)
No.17:Ti2[3p_x]->Ba1[5p_x](3.7061658505902026)
No.17:Ti2[3d_xy]->Ba1[5p_x](3.7061658505902026)
No.17:Ti2[3d_yz]->Ba1[5p_x](3.7061658505902026)
No.17:Ti2[3d_z^2]->Ba1[5p_x](3.7061658505902026)
No.17:Ti2[3d_xz]->Ba1[5p_x](3.7061658505902026)
No.17:Ti2[3d_x^2-y^2]->Ba1[5p_x](3.7061658505902026)
No.18:Ti2->Ba1(3.7061658505902031)
No.18:Ti2[3s]->Ba1[5s](3.7061658505902031)
No.18:Ti2[4s]->Ba1[5s](3.7061658505902031)
No.18:Ti2[3p_y]->Ba1[5s](3.7061658505902031)
No.18:Ti2[3p_z]->Ba1[5s](3.7061658505902031)
No.18:Ti2[3p_x]->Ba1[5s](3.7061658505902031)
No.18:Ti2[3d_xy]->Ba1[5s](3.7061658505902031)
No.18:Ti2[3d_yz]->Ba1[5s](3.7061658505902031)
No.18:Ti2[3d_z^2]->Ba1[5s](3.7061658505902031)
No.18:Ti2[3d_xz]->Ba1[5s](3.7061658505902031)
No.18:Ti2[3d_x^2-y^2]->Ba1[5s](3.7061658505902031)
No.18:Ti2[3s]->Ba1[6s](3.7061658505902031)
No.18:Ti2[4s]->Ba1[6s](3.7061658505902031)
No.18:Ti2[3p_y]->Ba1[6s](3.7061658505902031)
No.18:Ti2[3p_z]->Ba1[6s](3.7061658505902031)
No.18:Ti2[3p_x]->Ba1[6s](3.7061658505902031)
No.18:Ti2[3d_xy]->Ba1[6s](3.7061658505902031)
No.18:Ti2[3d_yz]->Ba1[6s](3.7061658505902031)
No.18:Ti2[3d_z^2]->Ba1[6s](3.7061658505902031)
No.18:Ti2[3d_xz]->Ba1[6s](3.7061658505902031)
No.18:Ti2[3d_x^2-y^2]->Ba1[6s](3.7061658505902031)
No.18:Ti2[3s]->Ba1[5p_y](3.7061658505902031)
No.18:Ti2[4s]->Ba1[5p_y](3.7061658505902031)
No.18:Ti2[3p_y]->Ba1[5p_y](3.7061658505902031)
No.18:Ti2[3p_z]->Ba1[5p_y](3.7061658505902031)
No.18:Ti2[3p_x]->Ba1[5p_y](3.7061658505902031)
No.18:Ti2[3d_xy]->Ba1[5p_y](3.7061658505902031)
No.18:Ti2[3d_yz]->Ba1[5p_y](3.7061658505902031)
No.18:Ti2[3d_z^2]->Ba1[5p_y](3.7061658505902031)
No.18:Ti2[3d_xz]->Ba1[5p_y](3.7061658505902031)
No.18:Ti2[3d_x^2-y^2]->Ba1[5p_y](3.7061658505902031)
No.18:Ti2[3s]->Ba1[5p_z](3.7061658505902031)
No.18:Ti2[4s]->Ba1[5p_z](3.7061658505902031)
No.18:Ti2[3p_y]->Ba1[5p_z](3.7061658505902031)
No.18:Ti2[3p_z]->Ba1[5p_z](3.7061658505902031)
No.18:Ti2[3p_x]->Ba1[5p_z](3.7061658505902031)
No.18:Ti2[3d_xy]->Ba1[5p_z](3.7061658505902031)