   5   5   1   0
  0.1436831E+02  0.3769968E-09  0.3769968E-09  0.5054758E-09  0.5000000E-15
  1.000000000000000E-004
  CAR 
 unknown system                          
     14.54476756    -56.15659445 3208      3.54452739      1.00000000
    -56.157  0.0000E+00  0.0000E+00
    -56.135  0.0000E+00  0.0000E+00
    -56.113  0.0000E+00  0.0000E+00
    -56.090  0.0000E+00  0.0000E+00
    -56.068  0.0000E+00  0.0000E+00
    -56.046  0.0000E+00  0.0000E+00
    -56.024  0.0000E+00  0.0000E+00
    -56.002  0.0000E+00  0.0000E+00
    -55.980  0.0000E+00  0.0000E+00
    -55.958  0.0000E+00  0.0000E+00
    -55.936  0.0000E+00  0.0000E+00
    -55.914  0.0000E+00  0.0000E+00
    -55.892  0.0000E+00  0.0000E+00
    -55.870  0.0000E+00  0.0000E+00
    -55.848  0.0000E+00  0.0000E+00
    -55.826  0.0000E+00  0.0000E+00
    -55.804  0.0000E+00  0.0000E+00
    -55.782  0.0000E+00  0.0000E+00
    -55.760  0.0000E+00  0.0000E+00
    -55.738  0.0000E+00  0.0000E+00
    -55.716  0.0000E+00  0.0000E+00
    -55.694  0.0000E+00  0.0000E+00
    -55.672  0.0000E+00  0.0000E+00
    -55.650  0.0000E+00  0.0000E+00
    -55.627  0.0000E+00  0.0000E+00
    -55.605  0.0000E+00  0.0000E+00
    -55.583  0.0000E+00  0.0000E+00
    -55.561  0.0000E+00  0.0000E+00
    -55.539  0.0000E+00  0.0000E+00
    -55.517  0.0000E+00  0.0000E+00
    -55.495  0.0000E+00  0.0000E+00
    -55.473  0.0000E+00  0.0000E+00
    -55.451  0.0000E+00  0.0000E+00
    -55.429  0.0000E+00  0.0000E+00
    -55.407  0.0000E+00  0.0000E+00
    -55.385  0.0000E+00  0.0000E+00
    -55.363  0.0000E+00  0.0000E+00
    -55.341  0.0000E+00  0.0000E+00
    -55.319  0.0000E+00  0.0000E+00
    -55.297  0.0000E+00  0.0000E+00
    -55.275  0.0000E+00  0.0000E+00
    -55.253  0.0000E+00  0.0000E+00
    -55.231  0.0000E+00  0.0000E+00
    -55.209  0.0000E+00  0.0000E+00
    -55.187  0.0000E+00  0.0000E+00
    -55.165  0.0000E+00  0.0000E+00
    -55.142  0.0000E+00  0.0000E+00
    -55.120  0.0000E+00  0.0000E+00
    -55.098  0.0000E+00  0.0000E+00
    -55.076  0.0000E+00  0.0000E+00
    -55.054  0.0000E+00  0.0000E+00
    -55.032  0.0000E+00  0.0000E+00
    -55.010  0.0000E+00  0.0000E+00
    -54.988  0.0000E+00  0.0000E+00
    -54.966  0.0000E+00  0.0000E+00
    -54.944  0.0000E+00  0.0000E+00
    -54.922  0.0000E+00  0.0000E+00
    -54.900  0.0000E+00  0.0000E+00
    -54.878  0.0000E+00  0.0000E+00
    -54.856  0.0000E+00  0.0000E+00
    -54.834  0.0000E+00  0.0000E+00
    -54.812  0.0000E+00  0.0000E+00
    -54.790  0.0000E+00  0.0000E+00
    -54.768  0.0000E+00  0.0000E+00
    -54.746  0.0000E+00  0.0000E+00
    -54.724  0.0000E+00  0.0000E+00
    -54.702  0.0000E+00  0.0000E+00
    -54.680  0.0000E+00  0.0000E+00
    -54.657  0.0000E+00  0.0000E+00
    -54.635  0.0000E+00  0.0000E+00
    -54.613  0.0000E+00  0.0000E+00
    -54.591  0.0000E+00  0.0000E+00
    -54.569  0.0000E+00  0.0000E+00
    -54.547  0.0000E+00  0.0000E+00
    -54.525  0.0000E+00  0.0000E+00
    -54.503  0.0000E+00  0.0000E+00
    -54.481  0.0000E+00  0.0000E+00
    -54.459  0.0000E+00  0.0000E+00
    -54.437  0.0000E+00  0.0000E+00
    -54.415  0.0000E+00  0.0000E+00
    -54.393  0.0000E+00  0.0000E+00
    -54.371  0.0000E+00  0.0000E+00
    -54.349  0.0000E+00  0.0000E+00
    -54.327  0.0000E+00  0.0000E+00
    -54.305  0.0000E+00  0.0000E+00
    -54.283  0.0000E+00  0.0000E+00
    -54.261  0.0000E+00  0.0000E+00
    -54.239  0.0000E+00  0.0000E+00
    -54.217  0.0000E+00  0.0000E+00
    -54.195  0.0000E+00  0.0000E+00
    -54.172  0.0000E+00  0.0000E+00
    -54.150  0.0000E+00  0.0000E+00
    -54.128  0.0000E+00  0.0000E+00
    -54.106  0.0000E+00  0.0000E+00
    -54.084  0.0000E+00  0.0000E+00
    -54.062  0.0000E+00  0.0000E+00
    -54.040  0.0000E+00  0.0000E+00
    -54.018  0.0000E+00  0.0000E+00
    -53.996  0.0000E+00  0.0000E+00
    -53.974  0.0000E+00  0.0000E+00
    -53.952  0.0000E+00  0.0000E+00
    -53.930  0.0000E+00  0.0000E+00
    -53.908  0.0000E+00  0.0000E+00
    -53.886  0.0000E+00  0.0000E+00
    -53.864  0.0000E+00  0.0000E+00
    -53.842  0.0000E+00  0.0000E+00
    -53.820  0.0000E+00  0.0000E+00
    -53.798  0.0000E+00  0.0000E+00
    -53.776  0.0000E+00  0.0000E+00
    -53.754  0.0000E+00  0.0000E+00
    -53.732  0.0000E+00  0.0000E+00
    -53.709  0.0000E+00  0.0000E+00
    -53.687  0.0000E+00  0.0000E+00
    -53.665  0.0000E+00  0.0000E+00
    -53.643  0.0000E+00  0.0000E+00
    -53.621  0.0000E+00  0.0000E+00
    -53.599  0.0000E+00  0.0000E+00
    -53.577  0.0000E+00  0.0000E+00
    -53.555  0.0000E+00  0.0000E+00
    -53.533  0.0000E+00  0.0000E+00
    -53.511  0.0000E+00  0.0000E+00
    -53.489  0.0000E+00  0.0000E+00
    -53.467  0.0000E+00  0.0000E+00
    -53.445  0.0000E+00  0.0000E+00
    -53.423  0.0000E+00  0.0000E+00
    -53.401  0.0000E+00  0.0000E+00
    -53.379  0.0000E+00  0.0000E+00
    -53.357  0.0000E+00  0.0000E+00
    -53.335  0.0000E+00  0.0000E+00
    -53.313  0.0000E+00  0.0000E+00
    -53.291  0.0000E+00  0.0000E+00
    -53.269  0.0000E+00  0.0000E+00
    -53.247  0.0000E+00  0.0000E+00
    -53.224  0.0000E+00  0.0000E+00
    -53.202  0.0000E+00  0.0000E+00
    -53.180  0.0000E+00  0.0000E+00
    -53.158  0.0000E+00  0.0000E+00
    -53.136  0.0000E+00  0.0000E+00
    -53.114  0.0000E+00  0.0000E+00
    -53.092  0.0000E+00  0.0000E+00
    -53.070  0.0000E+00  0.0000E+00
    -53.048  0.0000E+00  0.0000E+00
    -53.026  0.0000E+00  0.0000E+00
    -53.004  0.0000E+00  0.0000E+00
    -52.982  0.0000E+00  0.0000E+00
    -52.960  0.0000E+00  0.0000E+00
    -52.938  0.0000E+00  0.2000E+01
    -52.916  0.0000E+00  0.2000E+01
    -52.894  0.0000E+00  0.2000E+01
    -52.872  0.0000E+00  0.2000E+01
    -52.850  0.0000E+00  0.2000E+01
    -52.828  0.0000E+00  0.2000E+01
    -52.806  0.0000E+00  0.2000E+01
    -52.784  0.0000E+00  0.2000E+01
    -52.762  0.0000E+00  0.2000E+01
    -52.739  0.0000E+00  0.2000E+01
    -52.717  0.0000E+00  0.2000E+01
    -52.695  0.0000E+00  0.2000E+01
    -52.673  0.0000E+00  0.2000E+01
    -52.651  0.0000E+00  0.2000E+01
    -52.629  0.0000E+00  0.2000E+01
    -52.607  0.0000E+00  0.2000E+01
    -52.585  0.0000E+00  0.2000E+01
    -52.563  0.0000E+00  0.2000E+01
    -52.541  0.0000E+00  0.2000E+01
    -52.519  0.0000E+00  0.2000E+01
    -52.497  0.0000E+00  0.2000E+01
    -52.475  0.0000E+00  0.2000E+01
    -52.453  0.0000E+00  0.2000E+01
    -52.431  0.0000E+00  0.2000E+01
    -52.409  0.0000E+00  0.2000E+01
    -52.387  0.0000E+00  0.2000E+01
    -52.365  0.0000E+00  0.2000E+01
    -52.343  0.0000E+00  0.2000E+01
    -52.321  0.0000E+00  0.2000E+01
    -52.299  0.0000E+00  0.2000E+01
    -52.277  0.0000E+00  0.2000E+01
    -52.254  0.0000E+00  0.2000E+01
    -52.232  0.0000E+00  0.2000E+01
    -52.210  0.0000E+00  0.2000E+01
    -52.188  0.0000E+00  0.2000E+01
    -52.166  0.0000E+00  0.2000E+01
    -52.144  0.0000E+00  0.2000E+01
    -52.122  0.0000E+00  0.2000E+01
    -52.100  0.0000E+00  0.2000E+01
    -52.078  0.0000E+00  0.2000E+01
    -52.056  0.0000E+00  0.2000E+01
    -52.034  0.0000E+00  0.2000E+01
    -52.012  0.0000E+00  0.2000E+01
    -51.990  0.0000E+00  0.2000E+01
    -51.968  0.0000E+00  0.2000E+01
    -51.946  0.0000E+00  0.2000E+01
    -51.924  0.0000E+00  0.2000E+01
    -51.902  0.0000E+00  0.2000E+01
    -51.880  0.0000E+00  0.2000E+01
    -51.858  0.0000E+00  0.2000E+01
    -51.836  0.0000E+00  0.2000E+01
    -51.814  0.0000E+00  0.2000E+01
    -51.791  0.0000E+00  0.2000E+01
    -51.769  0.0000E+00  0.2000E+01
    -51.747  0.0000E+00  0.2000E+01
    -51.725  0.0000E+00  0.2000E+01
    -51.703  0.0000E+00  0.2000E+01
    -51.681  0.0000E+00  0.2000E+01
    -51.659  0.0000E+00  0.2000E+01
    -51.637  0.0000E+00  0.2000E+01
    -51.615  0.0000E+00  0.2000E+01
    -51.593  0.0000E+00  0.2000E+01
    -51.571  0.0000E+00  0.2000E+01
    -51.549  0.0000E+00  0.2000E+01
    -51.527  0.0000E+00  0.2000E+01
    -51.505  0.0000E+00  0.2000E+01
    -51.483  0.0000E+00  0.2000E+01
    -51.461  0.0000E+00  0.2000E+01
    -51.439  0.0000E+00  0.2000E+01
    -51.417  0.0000E+00  0.2000E+01
    -51.395  0.0000E+00  0.2000E+01
    -51.373  0.0000E+00  0.2000E+01
    -51.351  0.0000E+00  0.2000E+01
    -51.329  0.0000E+00  0.2000E+01
    -51.306  0.0000E+00  0.2000E+01
    -51.284  0.0000E+00  0.2000E+01
    -51.262  0.0000E+00  0.2000E+01
    -51.240  0.0000E+00  0.2000E+01
    -51.218  0.0000E+00  0.2000E+01
    -51.196  0.0000E+00  0.2000E+01
    -51.174  0.0000E+00  0.2000E+01
    -51.152  0.0000E+00  0.2000E+01
    -51.130  0.0000E+00  0.2000E+01
    -51.108  0.0000E+00  0.2000E+01
    -51.086  0.0000E+00  0.2000E+01
    -51.064  0.0000E+00  0.2000E+01
    -51.042  0.0000E+00  0.2000E+01
    -51.020  0.0000E+00  0.2000E+01
    -50.998  0.0000E+00  0.2000E+01
    -50.976  0.0000E+00  0.2000E+01
    -50.954  0.0000E+00  0.2000E+01
    -50.932  0.0000E+00  0.2000E+01
    -50.910  0.0000E+00  0.2000E+01
    -50.888  0.0000E+00  0.2000E+01
    -50.866  0.0000E+00  0.2000E+01
    -50.844  0.0000E+00  0.2000E+01
    -50.821  0.0000E+00  0.2000E+01
    -50.799  0.0000E+00  0.2000E+01
    -50.777  0.0000E+00  0.2000E+01
    -50.755  0.0000E+00  0.2000E+01
    -50.733  0.0000E+00  0.2000E+01
    -50.711  0.0000E+00  0.2000E+01
    -50.689  0.0000E+00  0.2000E+01
    -50.667  0.0000E+00  0.2000E+01
    -50.645  0.0000E+00  0.2000E+01
    -50.623  0.0000E+00  0.2000E+01
    -50.601  0.0000E+00  0.2000E+01
    -50.579  0.0000E+00  0.2000E+01
    -50.557  0.0000E+00  0.2000E+01
    -50.535  0.0000E+00  0.2000E+01
    -50.513  0.0000E+00  0.2000E+01
    -50.491  0.0000E+00  0.2000E+01
    -50.469  0.0000E+00  0.2000E+01
    -50.447  0.0000E+00  0.2000E+01
    -50.425  0.0000E+00  0.2000E+01
    -50.403  0.0000E+00  0.2000E+01
    -50.381  0.0000E+00  0.2000E+01
    -50.359  0.0000E+00  0.2000E+01
    -50.336  0.0000E+00  0.2000E+01
    -50.314  0.0000E+00  0.2000E+01
    -50.292  0.0000E+00  0.2000E+01
    -50.270  0.0000E+00  0.2000E+01
    -50.248  0.0000E+00  0.2000E+01
    -50.226  0.0000E+00  0.2000E+01
    -50.204  0.0000E+00  0.2000E+01
    -50.182  0.0000E+00  0.2000E+01
    -50.160  0.0000E+00  0.2000E+01
    -50.138  0.0000E+00  0.2000E+01
    -50.116  0.0000E+00  0.2000E+01
    -50.094  0.0000E+00  0.2000E+01
    -50.072  0.0000E+00  0.2000E+01
    -50.050  0.0000E+00  0.2000E+01
    -50.028  0.0000E+00  0.2000E+01
    -50.006  0.0000E+00  0.2000E+01
    -49.984  0.0000E+00  0.2000E+01
    -49.962  0.0000E+00  0.2000E+01
    -49.940  0.0000E+00  0.2000E+01
    -49.918  0.0000E+00  0.2000E+01
    -49.896  0.0000E+00  0.2000E+01
    -49.873  0.0000E+00  0.2000E+01
    -49.851  0.0000E+00  0.2000E+01
    -49.829  0.0000E+00  0.2000E+01
    -49.807  0.0000E+00  0.2000E+01
    -49.785  0.0000E+00  0.2000E+01
    -49.763  0.0000E+00  0.2000E+01
    -49.741  0.0000E+00  0.2000E+01
    -49.719  0.0000E+00  0.2000E+01
    -49.697  0.0000E+00  0.2000E+01
    -49.675  0.0000E+00  0.2000E+01
    -49.653  0.0000E+00  0.2000E+01
    -49.631  0.0000E+00  0.2000E+01
    -49.609  0.0000E+00  0.2000E+01
    -49.587  0.0000E+00  0.2000E+01
    -49.565  0.0000E+00  0.2000E+01
    -49.543  0.0000E+00  0.2000E+01
    -49.521  0.0000E+00  0.2000E+01
    -49.499  0.0000E+00  0.2000E+01
    -49.477  0.0000E+00  0.2000E+01
    -49.455  0.0000E+00  0.2000E+01
    -49.433  0.0000E+00  0.2000E+01
    -49.411  0.0000E+00  0.2000E+01
    -49.388  0.0000E+00  0.2000E+01
    -49.366  0.0000E+00  0.2000E+01
    -49.344  0.0000E+00  0.2000E+01
    -49.322  0.0000E+00  0.2000E+01
    -49.300  0.0000E+00  0.2000E+01
    -49.278  0.0000E+00  0.2000E+01
    -49.256  0.0000E+00  0.2000E+01
    -49.234  0.0000E+00  0.2000E+01
    -49.212  0.0000E+00  0.2000E+01
    -49.190  0.0000E+00  0.2000E+01
    -49.168  0.0000E+00  0.2000E+01
    -49.146  0.0000E+00  0.2000E+01
    -49.124  0.0000E+00  0.2000E+01
    -49.102  0.0000E+00  0.2000E+01
    -49.080  0.0000E+00  0.2000E+01
    -49.058  0.0000E+00  0.2000E+01
    -49.036  0.0000E+00  0.2000E+01
    -49.014  0.0000E+00  0.2000E+01
    -48.992  0.0000E+00  0.2000E+01
    -48.970  0.0000E+00  0.2000E+01
    -48.948  0.0000E+00  0.2000E+01
    -48.926  0.0000E+00  0.2000E+01
    -48.903  0.0000E+00  0.2000E+01
    -48.881  0.0000E+00  0.2000E+01
    -48.859  0.0000E+00  0.2000E+01
    -48.837  0.0000E+00  0.2000E+01
    -48.815  0.0000E+00  0.2000E+01
    -48.793  0.0000E+00  0.2000E+01
    -48.771  0.0000E+00  0.2000E+01
    -48.749  0.0000E+00  0.2000E+01
    -48.727  0.0000E+00  0.2000E+01
    -48.705  0.0000E+00  0.2000E+01
    -48.683  0.0000E+00  0.2000E+01
    -48.661  0.0000E+00  0.2000E+01
    -48.639  0.0000E+00  0.2000E+01
    -48.617  0.0000E+00  0.2000E+01
    -48.595  0.0000E+00  0.2000E+01
    -48.573  0.0000E+00  0.2000E+01
    -48.551  0.0000E+00  0.2000E+01
    -48.529  0.0000E+00  0.2000E+01
    -48.507  0.0000E+00  0.2000E+01
    -48.485  0.0000E+00  0.2000E+01
    -48.463  0.0000E+00  0.2000E+01
    -48.441  0.0000E+00  0.2000E+01
    -48.418  0.0000E+00  0.2000E+01
    -48.396  0.0000E+00  0.2000E+01
    -48.374  0.0000E+00  0.2000E+01
    -48.352  0.0000E+00  0.2000E+01
    -48.330  0.0000E+00  0.2000E+01
    -48.308  0.0000E+00  0.2000E+01
    -48.286  0.0000E+00  0.2000E+01
    -48.264  0.0000E+00  0.2000E+01
    -48.242  0.0000E+00  0.2000E+01
    -48.220  0.0000E+00  0.2000E+01
    -48.198  0.0000E+00  0.2000E+01
    -48.176  0.0000E+00  0.2000E+01
    -48.154  0.0000E+00  0.2000E+01
    -48.132  0.0000E+00  0.2000E+01
    -48.110  0.0000E+00  0.2000E+01
    -48.088  0.0000E+00  0.2000E+01
    -48.066  0.0000E+00  0.2000E+01
    -48.044  0.0000E+00  0.2000E+01
    -48.022  0.0000E+00  0.2000E+01
    -48.000  0.0000E+00  0.2000E+01
    -47.978  0.0000E+00  0.2000E+01
    -47.956  0.0000E+00  0.2000E+01
    -47.933  0.0000E+00  0.2000E+01
    -47.911  0.0000E+00  0.2000E+01
    -47.889  0.0000E+00  0.2000E+01
    -47.867  0.0000E+00  0.2000E+01
    -47.845  0.0000E+00  0.2000E+01
    -47.823  0.0000E+00  0.2000E+01
    -47.801  0.0000E+00  0.2000E+01
    -47.779  0.0000E+00  0.2000E+01
    -47.757  0.0000E+00  0.2000E+01
    -47.735  0.0000E+00  0.2000E+01
    -47.713  0.0000E+00  0.2000E+01
    -47.691  0.0000E+00  0.2000E+01
    -47.669  0.0000E+00  0.2000E+01
    -47.647  0.0000E+00  0.2000E+01
    -47.625  0.0000E+00  0.2000E+01
    -47.603  0.0000E+00  0.2000E+01
    -47.581  0.0000E+00  0.2000E+01
    -47.559  0.0000E+00  0.2000E+01
    -47.537  0.0000E+00  0.2000E+01
    -47.515  0.0000E+00  0.2000E+01
    -47.493  0.0000E+00  0.2000E+01
    -47.470  0.0000E+00  0.2000E+01
    -47.448  0.0000E+00  0.2000E+01
    -47.426  0.0000E+00  0.2000E+01
    -47.404  0.0000E+00  0.2000E+01
    -47.382  0.0000E+00  0.2000E+01
    -47.360  0.0000E+00  0.2000E+01
    -47.338  0.0000E+00  0.2000E+01
    -47.316  0.0000E+00  0.2000E+01
    -47.294  0.0000E+00  0.2000E+01
    -47.272  0.0000E+00  0.2000E+01
    -47.250  0.0000E+00  0.2000E+01
    -47.228  0.0000E+00  0.2000E+01
    -47.206  0.0000E+00  0.2000E+01
    -47.184  0.0000E+00  0.2000E+01
    -47.162  0.0000E+00  0.2000E+01
    -47.140  0.0000E+00  0.2000E+01
    -47.118  0.0000E+00  0.2000E+01
    -47.096  0.0000E+00  0.2000E+01
    -47.074  0.0000E+00  0.2000E+01
    -47.052  0.0000E+00  0.2000E+01
    -47.030  0.0000E+00  0.2000E+01
    -47.008  0.0000E+00  0.2000E+01
    -46.985  0.0000E+00  0.2000E+01
    -46.963  0.0000E+00  0.2000E+01
    -46.941  0.0000E+00  0.2000E+01
    -46.919  0.0000E+00  0.2000E+01
    -46.897  0.0000E+00  0.2000E+01
    -46.875  0.0000E+00  0.2000E+01
    -46.853  0.0000E+00  0.2000E+01
    -46.831  0.0000E+00  0.2000E+01
    -46.809  0.0000E+00  0.2000E+01
    -46.787  0.0000E+00  0.2000E+01
    -46.765  0.0000E+00  0.2000E+01
    -46.743  0.0000E+00  0.2000E+01
    -46.721  0.0000E+00  0.2000E+01
    -46.699  0.0000E+00  0.2000E+01
    -46.677  0.0000E+00  0.2000E+01
    -46.655  0.0000E+00  0.2000E+01
    -46.633  0.0000E+00  0.2000E+01
    -46.611  0.0000E+00  0.2000E+01
    -46.589  0.0000E+00  0.2000E+01
    -46.567  0.0000E+00  0.2000E+01
    -46.545  0.0000E+00  0.2000E+01
    -46.523  0.0000E+00  0.2000E+01
    -46.500  0.0000E+00  0.2000E+01
    -46.478  0.0000E+00  0.2000E+01
    -46.456  0.0000E+00  0.2000E+01
    -46.434  0.0000E+00  0.2000E+01
    -46.412  0.0000E+00  0.2000E+01
    -46.390  0.0000E+00  0.2000E+01
    -46.368  0.0000E+00  0.2000E+01
    -46.346  0.0000E+00  0.2000E+01
    -46.324  0.0000E+00  0.2000E+01
    -46.302  0.0000E+00  0.2000E+01
    -46.280  0.0000E+00  0.2000E+01
    -46.258  0.0000E+00  0.2000E+01
    -46.236  0.0000E+00  0.2000E+01
    -46.214  0.0000E+00  0.2000E+01
    -46.192  0.0000E+00  0.2000E+01
    -46.170  0.0000E+00  0.2000E+01
    -46.148  0.0000E+00  0.2000E+01
    -46.126  0.0000E+00  0.2000E+01
    -46.104  0.0000E+00  0.2000E+01
    -46.082  0.0000E+00  0.2000E+01
    -46.060  0.0000E+00  0.2000E+01
    -46.038  0.0000E+00  0.2000E+01
    -46.015  0.0000E+00  0.2000E+01
    -45.993  0.0000E+00  0.2000E+01
    -45.971  0.0000E+00  0.2000E+01
    -45.949  0.0000E+00  0.2000E+01
    -45.927  0.0000E+00  0.2000E+01
    -45.905  0.0000E+00  0.2000E+01
    -45.883  0.0000E+00  0.2000E+01
    -45.861  0.0000E+00  0.2000E+01
    -45.839  0.0000E+00  0.2000E+01
    -45.817  0.0000E+00  0.2000E+01
    -45.795  0.0000E+00  0.2000E+01
    -45.773  0.0000E+00  0.2000E+01
    -45.751  0.0000E+00  0.2000E+01
    -45.729  0.0000E+00  0.2000E+01
    -45.707  0.0000E+00  0.2000E+01
    -45.685  0.0000E+00  0.2000E+01
    -45.663  0.0000E+00  0.2000E+01
    -45.641  0.0000E+00  0.2000E+01
    -45.619  0.0000E+00  0.2000E+01
    -45.597  0.0000E+00  0.2000E+01
    -45.575  0.0000E+00  0.2000E+01
    -45.552  0.0000E+00  0.2000E+01
    -45.530  0.0000E+00  0.2000E+01
    -45.508  0.0000E+00  0.2000E+01
    -45.486  0.0000E+00  0.2000E+01
    -45.464  0.0000E+00  0.2000E+01
    -45.442  0.0000E+00  0.2000E+01
    -45.420  0.0000E+00  0.2000E+01
    -45.398  0.0000E+00  0.2000E+01
    -45.376  0.0000E+00  0.2000E+01
    -45.354  0.0000E+00  0.2000E+01
    -45.332  0.0000E+00  0.2000E+01
    -45.310  0.0000E+00  0.2000E+01
    -45.288  0.0000E+00  0.2000E+01
    -45.266  0.0000E+00  0.2000E+01
    -45.244  0.0000E+00  0.2000E+01
    -45.222  0.0000E+00  0.2000E+01
    -45.200  0.0000E+00  0.2000E+01
    -45.178  0.0000E+00  0.2000E+01
    -45.156  0.0000E+00  0.2000E+01
    -45.134  0.0000E+00  0.2000E+01
    -45.112  0.0000E+00  0.2000E+01
    -45.090  0.0000E+00  0.2000E+01
    -45.067  0.0000E+00  0.2000E+01
    -45.045  0.0000E+00  0.2000E+01
    -45.023  0.0000E+00  0.2000E+01
    -45.001  0.0000E+00  0.2000E+01
    -44.979  0.0000E+00  0.2000E+01
    -44.957  0.0000E+00  0.2000E+01
    -44.935  0.0000E+00  0.2000E+01
    -44.913  0.0000E+00  0.2000E+01
    -44.891  0.0000E+00  0.2000E+01
    -44.869  0.0000E+00  0.2000E+01
    -44.847  0.0000E+00  0.2000E+01
    -44.825  0.0000E+00  0.2000E+01
    -44.803  0.0000E+00  0.2000E+01
    -44.781  0.0000E+00  0.2000E+01
    -44.759  0.0000E+00  0.2000E+01
    -44.737  0.0000E+00  0.2000E+01
    -44.715  0.0000E+00  0.2000E+01
    -44.693  0.0000E+00  0.2000E+01
    -44.671  0.0000E+00  0.2000E+01
    -44.649  0.0000E+00  0.2000E+01
    -44.627  0.0000E+00  0.2000E+01
    -44.605  0.0000E+00  0.2000E+01
    -44.582  0.0000E+00  0.2000E+01
    -44.560  0.0000E+00  0.2000E+01
    -44.538  0.0000E+00  0.2000E+01
    -44.516  0.0000E+00  0.2000E+01
    -44.494  0.0000E+00  0.2000E+01
    -44.472  0.0000E+00  0.2000E+01
    -44.450  0.0000E+00  0.2000E+01
    -44.428  0.0000E+00  0.2000E+01
    -44.406  0.0000E+00  0.2000E+01
    -44.384  0.0000E+00  0.2000E+01
    -44.362  0.0000E+00  0.2000E+01
    -44.340  0.0000E+00  0.2000E+01
    -44.318  0.0000E+00  0.2000E+01
    -44.296  0.0000E+00  0.2000E+01
    -44.274  0.0000E+00  0.2000E+01
    -44.252  0.0000E+00  0.2000E+01
    -44.230  0.0000E+00  0.2000E+01
    -44.208  0.0000E+00  0.2000E+01
    -44.186  0.0000E+00  0.2000E+01
    -44.164  0.0000E+00  0.2000E+01
    -44.142  0.0000E+00  0.2000E+01
    -44.120  0.0000E+00  0.2000E+01
    -44.097  0.0000E+00  0.2000E+01
    -44.075  0.0000E+00  0.2000E+01
    -44.053  0.0000E+00  0.2000E+01
    -44.031  0.0000E+00  0.2000E+01
    -44.009  0.0000E+00  0.2000E+01
    -43.987  0.0000E+00  0.2000E+01
    -43.965  0.0000E+00  0.2000E+01
    -43.943  0.0000E+00  0.2000E+01
    -43.921  0.0000E+00  0.2000E+01
    -43.899  0.0000E+00  0.2000E+01
    -43.877  0.0000E+00  0.2000E+01
    -43.855  0.0000E+00  0.2000E+01
    -43.833  0.0000E+00  0.2000E+01
    -43.811  0.0000E+00  0.2000E+01
    -43.789  0.0000E+00  0.2000E+01
    -43.767  0.0000E+00  0.2000E+01
    -43.745  0.0000E+00  0.2000E+01
    -43.723  0.0000E+00  0.2000E+01
    -43.701  0.0000E+00  0.2000E+01
    -43.679  0.0000E+00  0.2000E+01
    -43.657  0.0000E+00  0.2000E+01
    -43.634  0.0000E+00  0.2000E+01
    -43.612  0.0000E+00  0.2000E+01
    -43.590  0.0000E+00  0.2000E+01
    -43.568  0.0000E+00  0.2000E+01
    -43.546  0.0000E+00  0.2000E+01
    -43.524  0.0000E+00  0.2000E+01
    -43.502  0.0000E+00  0.2000E+01
    -43.480  0.0000E+00  0.2000E+01
    -43.458  0.0000E+00  0.2000E+01
    -43.436  0.0000E+00  0.2000E+01
    -43.414  0.0000E+00  0.2000E+01
    -43.392  0.0000E+00  0.2000E+01
    -43.370  0.0000E+00  0.2000E+01
    -43.348  0.0000E+00  0.2000E+01
    -43.326  0.0000E+00  0.2000E+01
    -43.304  0.0000E+00  0.2000E+01
    -43.282  0.0000E+00  0.2000E+01
    -43.260  0.0000E+00  0.2000E+01
    -43.238  0.0000E+00  0.2000E+01
    -43.216  0.0000E+00  0.2000E+01
    -43.194  0.0000E+00  0.2000E+01
    -43.172  0.0000E+00  0.2000E+01
    -43.149  0.0000E+00  0.2000E+01
    -43.127  0.0000E+00  0.2000E+01
    -43.105  0.0000E+00  0.2000E+01
    -43.083  0.0000E+00  0.2000E+01
    -43.061  0.0000E+00  0.2000E+01
    -43.039  0.0000E+00  0.2000E+01
    -43.017  0.0000E+00  0.2000E+01
    -42.995  0.0000E+00  0.2000E+01
    -42.973  0.0000E+00  0.2000E+01
    -42.951  0.0000E+00  0.2000E+01
    -42.929  0.0000E+00  0.2000E+01
    -42.907  0.0000E+00  0.2000E+01
    -42.885  0.0000E+00  0.2000E+01
    -42.863  0.0000E+00  0.2000E+01
    -42.841  0.0000E+00  0.2000E+01
    -42.819  0.0000E+00  0.2000E+01
    -42.797  0.0000E+00  0.2000E+01
    -42.775  0.0000E+00  0.2000E+01
    -42.753  0.0000E+00  0.2000E+01
    -42.731  0.0000E+00  0.2000E+01
    -42.709  0.0000E+00  0.2000E+01
    -42.687  0.0000E+00  0.2000E+01
    -42.664  0.0000E+00  0.2000E+01
    -42.642  0.0000E+00  0.2000E+01
    -42.620  0.0000E+00  0.2000E+01
    -42.598  0.0000E+00  0.2000E+01
    -42.576  0.0000E+00  0.2000E+01
    -42.554  0.0000E+00  0.2000E+01
    -42.532  0.0000E+00  0.2000E+01
    -42.510  0.0000E+00  0.2000E+01
    -42.488  0.0000E+00  0.2000E+01
    -42.466  0.0000E+00  0.2000E+01
    -42.444  0.0000E+00  0.2000E+01
    -42.422  0.0000E+00  0.2000E+01
    -42.400  0.0000E+00  0.2000E+01
    -42.378  0.0000E+00  0.2000E+01
    -42.356  0.0000E+00  0.2000E+01
    -42.334  0.0000E+00  0.2000E+01
    -42.312  0.0000E+00  0.2000E+01
    -42.290  0.0000E+00  0.2000E+01
    -42.268  0.0000E+00  0.2000E+01
    -42.246  0.0000E+00  0.2000E+01
    -42.224  0.0000E+00  0.2000E+01
    -42.202  0.0000E+00  0.2000E+01
    -42.179  0.0000E+00  0.2000E+01
    -42.157  0.0000E+00  0.2000E+01
    -42.135  0.0000E+00  0.2000E+01
    -42.113  0.0000E+00  0.2000E+01
    -42.091  0.0000E+00  0.2000E+01
    -42.069  0.0000E+00  0.2000E+01
    -42.047  0.0000E+00  0.2000E+01
    -42.025  0.0000E+00  0.2000E+01
    -42.003  0.0000E+00  0.2000E+01
    -41.981  0.0000E+00  0.2000E+01
    -41.959  0.0000E+00  0.2000E+01
    -41.937  0.0000E+00  0.2000E+01
    -41.915  0.0000E+00  0.2000E+01
    -41.893  0.0000E+00  0.2000E+01
    -41.871  0.0000E+00  0.2000E+01
    -41.849  0.0000E+00  0.2000E+01
    -41.827  0.0000E+00  0.2000E+01
    -41.805  0.0000E+00  0.2000E+01
    -41.783  0.0000E+00  0.2000E+01
    -41.761  0.0000E+00  0.2000E+01
    -41.739  0.0000E+00  0.2000E+01
    -41.716  0.0000E+00  0.2000E+01
    -41.694  0.0000E+00  0.2000E+01
    -41.672  0.0000E+00  0.2000E+01
    -41.650  0.0000E+00  0.2000E+01
    -41.628  0.0000E+00  0.2000E+01
    -41.606  0.0000E+00  0.2000E+01
    -41.584  0.0000E+00  0.2000E+01
    -41.562  0.0000E+00  0.2000E+01
    -41.540  0.0000E+00  0.2000E+01
    -41.518  0.0000E+00  0.2000E+01
    -41.496  0.0000E+00  0.2000E+01
    -41.474  0.0000E+00  0.2000E+01
    -41.452  0.0000E+00  0.2000E+01
    -41.430  0.0000E+00  0.2000E+01
    -41.408  0.0000E+00  0.2000E+01
    -41.386  0.0000E+00  0.2000E+01
    -41.364  0.0000E+00  0.2000E+01
    -41.342  0.0000E+00  0.2000E+01
    -41.320  0.0000E+00  0.2000E+01
    -41.298  0.0000E+00  0.2000E+01
    -41.276  0.0000E+00  0.2000E+01
    -41.254  0.0000E+00  0.2000E+01
    -41.231  0.0000E+00  0.2000E+01
    -41.209  0.0000E+00  0.2000E+01
    -41.187  0.0000E+00  0.2000E+01
    -41.165  0.0000E+00  0.2000E+01
    -41.143  0.0000E+00  0.2000E+01
    -41.121  0.0000E+00  0.2000E+01
    -41.099  0.0000E+00  0.2000E+01
    -41.077  0.0000E+00  0.2000E+01
    -41.055  0.0000E+00  0.2000E+01
    -41.033  0.0000E+00  0.2000E+01
    -41.011  0.0000E+00  0.2000E+01
    -40.989  0.0000E+00  0.2000E+01
    -40.967  0.0000E+00  0.2000E+01
    -40.945  0.0000E+00  0.2000E+01
    -40.923  0.0000E+00  0.2000E+01
    -40.901  0.0000E+00  0.2000E+01
    -40.879  0.0000E+00  0.2000E+01
    -40.857  0.0000E+00  0.2000E+01
    -40.835  0.0000E+00  0.2000E+01
    -40.813  0.0000E+00  0.2000E+01
    -40.791  0.0000E+00  0.2000E+01
    -40.769  0.0000E+00  0.2000E+01
    -40.746  0.0000E+00  0.2000E+01
    -40.724  0.0000E+00  0.2000E+01
    -40.702  0.0000E+00  0.2000E+01
    -40.680  0.0000E+00  0.2000E+01
    -40.658  0.0000E+00  0.2000E+01
    -40.636  0.0000E+00  0.2000E+01
    -40.614  0.0000E+00  0.2000E+01
    -40.592  0.0000E+00  0.2000E+01
    -40.570  0.0000E+00  0.2000E+01
    -40.548  0.0000E+00  0.2000E+01
    -40.526  0.0000E+00  0.2000E+01
    -40.504  0.0000E+00  0.2000E+01
    -40.482  0.0000E+00  0.2000E+01
    -40.460  0.0000E+00  0.2000E+01
    -40.438  0.0000E+00  0.2000E+01
    -40.416  0.0000E+00  0.2000E+01
    -40.394  0.0000E+00  0.2000E+01
    -40.372  0.0000E+00  0.2000E+01
    -40.350  0.0000E+00  0.2000E+01
    -40.328  0.0000E+00  0.2000E+01
    -40.306  0.0000E+00  0.2000E+01
    -40.284  0.0000E+00  0.2000E+01
    -40.261  0.0000E+00  0.2000E+01
    -40.239  0.0000E+00  0.2000E+01
    -40.217  0.0000E+00  0.2000E+01
    -40.195  0.0000E+00  0.2000E+01
    -40.173  0.0000E+00  0.2000E+01
    -40.151  0.0000E+00  0.2000E+01
    -40.129  0.0000E+00  0.2000E+01
    -40.107  0.0000E+00  0.2000E+01
    -40.085  0.0000E+00  0.2000E+01
    -40.063  0.0000E+00  0.2000E+01
    -40.041  0.0000E+00  0.2000E+01
    -40.019  0.0000E+00  0.2000E+01
    -39.997  0.0000E+00  0.2000E+01
    -39.975  0.0000E+00  0.2000E+01
    -39.953  0.0000E+00  0.2000E+01
    -39.931  0.0000E+00  0.2000E+01
    -39.909  0.0000E+00  0.2000E+01
    -39.887  0.0000E+00  0.2000E+01
    -39.865  0.0000E+00  0.2000E+01
    -39.843  0.0000E+00  0.2000E+01
    -39.821  0.0000E+00  0.2000E+01
    -39.798  0.0000E+00  0.2000E+01
    -39.776  0.0000E+00  0.2000E+01
    -39.754  0.0000E+00  0.2000E+01
    -39.732  0.0000E+00  0.2000E+01
    -39.710  0.0000E+00  0.2000E+01
    -39.688  0.0000E+00  0.2000E+01
    -39.666  0.0000E+00  0.2000E+01
    -39.644  0.0000E+00  0.2000E+01
    -39.622  0.0000E+00  0.2000E+01
    -39.600  0.0000E+00  0.2000E+01
    -39.578  0.0000E+00  0.2000E+01
    -39.556  0.0000E+00  0.2000E+01
    -39.534  0.0000E+00  0.2000E+01
    -39.512  0.0000E+00  0.2000E+01
    -39.490  0.0000E+00  0.2000E+01
    -39.468  0.0000E+00  0.2000E+01
    -39.446  0.0000E+00  0.2000E+01
    -39.424  0.0000E+00  0.2000E+01
    -39.402  0.0000E+00  0.2000E+01
    -39.380  0.0000E+00  0.2000E+01
    -39.358  0.0000E+00  0.2000E+01
    -39.336  0.0000E+00  0.2000E+01
    -39.313  0.0000E+00  0.2000E+01
    -39.291  0.0000E+00  0.2000E+01
    -39.269  0.0000E+00  0.2000E+01
    -39.247  0.0000E+00  0.2000E+01
    -39.225  0.0000E+00  0.2000E+01
    -39.203  0.0000E+00  0.2000E+01
    -39.181  0.0000E+00  0.2000E+01
    -39.159  0.0000E+00  0.2000E+01
    -39.137  0.0000E+00  0.2000E+01
    -39.115  0.0000E+00  0.2000E+01
    -39.093  0.0000E+00  0.2000E+01
    -39.071  0.0000E+00  0.2000E+01
    -39.049  0.0000E+00  0.2000E+01
    -39.027  0.0000E+00  0.2000E+01
    -39.005  0.0000E+00  0.2000E+01
    -38.983  0.0000E+00  0.2000E+01
    -38.961  0.0000E+00  0.2000E+01
    -38.939  0.0000E+00  0.2000E+01
    -38.917  0.0000E+00  0.2000E+01
    -38.895  0.0000E+00  0.2000E+01
    -38.873  0.0000E+00  0.2000E+01
    -38.851  0.0000E+00  0.2000E+01
    -38.828  0.0000E+00  0.2000E+01
    -38.806  0.0000E+00  0.2000E+01
    -38.784  0.0000E+00  0.2000E+01
    -38.762  0.0000E+00  0.2000E+01
    -38.740  0.0000E+00  0.2000E+01
    -38.718  0.0000E+00  0.2000E+01
    -38.696  0.0000E+00  0.2000E+01
    -38.674  0.0000E+00  0.2000E+01
    -38.652  0.0000E+00  0.2000E+01
    -38.630  0.0000E+00  0.2000E+01
    -38.608  0.0000E+00  0.2000E+01
    -38.586  0.0000E+00  0.2000E+01
    -38.564  0.0000E+00  0.2000E+01
    -38.542  0.0000E+00  0.2000E+01
    -38.520  0.0000E+00  0.2000E+01
    -38.498  0.0000E+00  0.2000E+01
    -38.476  0.0000E+00  0.2000E+01
    -38.454  0.0000E+00  0.2000E+01
    -38.432  0.0000E+00  0.2000E+01
    -38.410  0.0000E+00  0.2000E+01
    -38.388  0.0000E+00  0.2000E+01
    -38.366  0.0000E+00  0.2000E+01
    -38.343  0.0000E+00  0.2000E+01
    -38.321  0.0000E+00  0.2000E+01
    -38.299  0.0000E+00  0.2000E+01
    -38.277  0.0000E+00  0.2000E+01
    -38.255  0.0000E+00  0.2000E+01
    -38.233  0.0000E+00  0.2000E+01
    -38.211  0.0000E+00  0.2000E+01
    -38.189  0.0000E+00  0.2000E+01
    -38.167  0.0000E+00  0.2000E+01
    -38.145  0.0000E+00  0.2000E+01
    -38.123  0.0000E+00  0.2000E+01
    -38.101  0.0000E+00  0.2000E+01
    -38.079  0.0000E+00  0.2000E+01
    -38.057  0.0000E+00  0.2000E+01
    -38.035  0.0000E+00  0.2000E+01
    -38.013  0.0000E+00  0.2000E+01
    -37.991  0.0000E+00  0.2000E+01
    -37.969  0.0000E+00  0.2000E+01