   5    5    1    1
  7.1841538e+01   3.7699677e-10   3.7699677e-10   5.0547580e-10   5.0000000e-16
            1.000000e-04
  CAR
 DOS and projected DOS file by LOBSTER. Energy is shifted such that the Fermi level lies at 0 eV. 
     12.43341628     -32.01102817    11       3.54452739       1.00000000
-35.55556   0.00000   2.00000
-31.11111   1.35000   8.00001
-26.66667   0.00000   8.00001
-22.22222   0.45000  10.00001
-17.77778   0.00000  10.00001
-13.33333   1.35000  16.00002
 -8.88889   1.35000  22.00003
 -4.44444   0.07120  22.31646
  0.00000   3.97881  40.00005
  4.44444   1.80563  48.02507
  8.88889   1.34438  54.00007
      8.88888889     -35.55555556    11       3.54452739       1.00000000; Z= 56; 5s 6s 5p_y 5p_z 5p_x 
-35.55556   0.00000   0.00000   0.00000   0.00000   0.00000
-31.11111  -0.00005  -0.00264   0.00001  -0.00000   0.00001
-26.66667   0.00000   0.00000   0.00000   0.00000   0.00000
-22.22222   0.39135  -0.00138   0.00014   0.00003   0.00014
-17.77778   0.00000   0.00000   0.00000   0.00000   0.00000
-13.33333   0.00433  -0.07342   0.00979   0.00763   0.00979
 -8.88889   0.00011   0.00323   0.41753   0.41847   0.41754
 -4.44444   0.00015   0.00152   0.00003   0.00026   0.00003
  0.00000   0.00177   0.08311   0.01856   0.02092   0.01855
  4.44444   0.00418   0.09098   0.00055   0.00067   0.00052
  8.88889   0.04808   0.32886   0.00339   0.00202   0.00342
      8.88888889     -35.55555556    11       3.54452739       1.00000000; Z= 22; 3s 4s 3p_y 3p_z 3p_x 3d_xy 3d_yz 3d_z^2 3d_xz 3d_x^2-y^2 
-35.55556   0.00000   0.00000   0.00000   0.00000   0.00000   0.00000   0.00000   0.00000   0.00000   0.00000
-31.11111   0.00001   0.00067   0.44638   0.44214   0.44638   0.00000   0.00001   0.00022   0.00001   0.00000
-26.66667   0.00000   0.00000   0.00000   0.00000   0.00000   0.00000   0.00000   0.00000   0.00000   0.00000
-22.22222   0.00007   0.05252   0.00001   0.00000   0.00001   0.00026  -0.00001   0.00004  -0.00001   0.00000
-17.77778   0.00000   0.00000   0.00000   0.00000   0.00000   0.00000   0.00000   0.00000   0.00000   0.00000
-13.33333   0.00026   0.14554   0.00261   0.00561   0.00261  -0.00001   0.00266   0.01603   0.00266   0.01512
 -8.88889   0.00007   0.00254   0.00005   0.00020   0.00005   0.00057   0.00074   0.00138   0.00075   0.00043
 -4.44444   0.00003   0.01158   0.00001   0.00014   0.00001   0.00166   0.00055   0.00296   0.00055   0.00106
  0.00000   0.00132   0.06084   0.00125   0.00188   0.00125   0.06906   0.08693   0.09181   0.08697   0.09352
  4.44444   0.00609  -0.03880   0.00005   0.00003   0.00005   0.37824   0.33658   0.27429   0.33660   0.07016
  8.88889   0.01285   0.22081  -0.00037   0.00001  -0.00037   0.00022   0.02254   0.06324   0.02248   0.26968
      8.88888889     -35.55555556    11       3.54452739       1.00000000; Z=  8; 2s 2p_y 2p_z 2p_x 
-35.55556   0.00000   0.00000   0.00000   0.00000
-31.11111   0.00328   0.00009   0.00012   0.00136
-26.66667   0.00000   0.00000   0.00000   0.00000
-22.22222   0.00043   0.00102   0.00049   0.00004
-17.77778   0.00000   0.00000   0.00000   0.00000
-13.33333   0.40130   0.00040   0.00010  -0.00056
 -8.88889   0.00819   0.00649   0.00877   0.00060
 -4.44444   0.00007   0.00321   0.00037   0.02042
  0.00000   0.00490   0.38737   0.38351   0.32829
  4.44444   0.00786   0.03282   0.02932   0.02943
  8.88889   0.02341   0.01859   0.02712   0.06908
      8.88888889     -35.55555556    11       3.54452739       1.00000000; Z=  8; 2s 2p_y 2p_z 2p_x 
-35.55556   0.00000   0.00000   0.00000   0.00000
-31.11111   0.00328   0.00136   0.00012   0.00009
-26.66667   0.00000   0.00000   0.00000   0.00000
-22.22222   0.00043   0.00004   0.00049   0.00102
-17.77778   0.00000   0.00000   0.00000   0.00000
-13.33333   0.40124  -0.00056   0.00010   0.00040
 -8.88889   0.00818   0.00060   0.00876   0.00650
 -4.44444   0.00007   0.02041   0.00037   0.00321
  0.00000   0.00488   0.32824   0.38383   0.38728
  4.44444   0.00822   0.03004   0.02928   0.03277
  8.88889   0.02314   0.06853   0.02684   0.01873
      8.88888889     -35.55555556    11       3.54452739       1.00000000; Z=  8; 2s 2p_y 2p_z 2p_x 
-35.55556   0.00000   0.00000   0.00000   0.00000
-31.11111   0.00471   0.00016   0.00211   0.00016
-26.66667   0.00000   0.00000   0.00000   0.00000
-22.22222   0.00048   0.00094   0.00049   0.00094
-17.77778   0.00000   0.00000   0.00000   0.00000
-13.33333   0.39610   0.00006   0.00016   0.00006
 -8.88889   0.01245   0.01089   0.00400   0.01090
 -4.44444   0.00007   0.00023   0.00198   0.00023
  0.00000   0.00764   0.37787   0.36939   0.37788
  4.44444   0.01195   0.04295   0.04742   0.04338
  8.88889   0.01601   0.01690   0.02270   0.01645
