Automatically generated mesh
      34
Reciprocal lattice
    0.00000000000000    0.00000000000000    0.00000000000000             1
    0.12500000000000   -0.00000000000000   -0.00000000000000             2
    0.25000000000000   -0.00000000000000   -0.00000000000000             2
    0.37500000000000   -0.00000000000000   -0.00000000000000             2
    0.50000000000000   -0.00000000000000   -0.00000000000000             1
    0.00000000000000    0.12500000000000   -0.00000000000000             2
    0.12500000000000    0.12500000000000   -0.00000000000000             2
    0.25000000000000    0.12500000000000   -0.00000000000000             2
    0.37500000000000    0.12500000000000   -0.00000000000000             2
    0.50000000000000    0.12500000000000   -0.00000000000000             2
   -0.37500000000000    0.12500000000000   -0.00000000000000             2
   -0.25000000000000    0.12500000000000   -0.00000000000000             2
   -0.12500000000000    0.12500000000000   -0.00000000000000             2
    0.00000000000000    0.25000000000000   -0.00000000000000             2
    0.12500000000000    0.25000000000000   -0.00000000000000             2
    0.25000000000000    0.25000000000000   -0.00000000000000             2
    0.37500000000000    0.25000000000000   -0.00000000000000             2
    0.50000000000000    0.25000000000000   -0.00000000000000             2
   -0.37500000000000    0.25000000000000    0.00000000000000             2
   -0.25000000000000    0.25000000000000   -0.00000000000000             2
   -0.12500000000000    0.25000000000000   -0.00000000000000             2
   -0.00000000000000    0.37500000000000   -0.00000000000000             2
    0.12500000000000    0.37500000000000   -0.00000000000000             2
    0.25000000000000    0.37500000000000   -0.00000000000000             2
    0.37500000000000    0.37500000000000   -0.00000000000000             2
    0.50000000000000    0.37500000000000   -0.00000000000000             2
   -0.37500000000000    0.37500000000000   -0.00000000000000             2
   -0.25000000000000    0.37500000000000   -0.00000000000000             2
   -0.12500000000000    0.37500000000000   -0.00000000000000             2
    0.00000000000000    0.50000000000000   -0.00000000000000             1
    0.12500000000000    0.50000000000000   -0.00000000000000             2
    0.25000000000000    0.50000000000000   -0.00000000000000             2
    0.37500000000000    0.50000000000000   -0.00000000000000             2
    0.50000000000000    0.50000000000000   -0.00000000000000             1
Tetrahedra
       192    0.00260416666667
         2         1         1         2         7
         2         1         1         6         7
         2         1         6         6         7
         2         1         2         2         7
         2         1         2         7         7
         2         1         6         7         7
         2         2         2         3         8
         2         2         2         7         8
         2         2         7         7         8
         2         2         3         3         8
         2         2         3         8         8
         2         2         7         8         8
         2         3         3         4         9
         2         3         3         8         9
         2         3         8         8         9
         2         3         4         4         9
         2         3         4         9         9
         2         3         8         9         9
         2         4         4         5        10
         2         4         4         9        10
         2         4         9         9        10
         2         4         5         5        10
         2         4         5        10        10
         2         4         9        10        10
         2         4         5         5        11
         2         5         5        10        11
         2         5        10        10        11
         2         4         4         5        11
         2         4         5        11        11
         2         5        10        11        11
         2         3         4         4        12
         2         4         4        11        12
         2         4        11        11        12
         2         3         3         4        12
         2         3         4        12        12
         2         4        11        12        12
         2         2         3         3        13
         2         3         3        12        13
         2         3        12        12        13
         2         2         2         3        13
         2         2         3        13        13
         2         3        12        13        13
         2         1         2         2         6
         2         2         2         6        13
         2         2         6        13        13
         2         1         1         2         6
         2         1         2         6         6
         2         2         6         6        13
         2         6         6         7        15
         2         6         6        14        15
         2         6        14        14        15
         2         6         7         7        15
         2         6         7        15        15
         2         6        14        15        15
         2         7         7         8        16
         2         7         7        15        16
         2         7        15        15        16
         2         7         8         8        16
         2         7         8        16        16
         2         7        15        16        16
         2         8         8         9        17
         2         8         8        16        17
         2         8        16        16        17
         2         8         9         9        17
         2         8         9        17        17
         2         8        16        17        17
         2         9         9        10        18
         2         9         9        17        18
         2         9        17        17        18
         2         9        10        10        18
         2         9        10        18        18
         2         9        17        18        18
         2        10        10        11        19
         2        10        10        18        19
         2        10        18        18        19
         2        10        11        11        19
         2        10        11        19        19
         2        10        18        19        19
         2        11        11        12        20
         2        11        11        19        20
         2        11        19        19        20
         2        11        12        12        20
         2        11        12        20        20
         2        11        19        20        20
         2        12        12        13        21
         2        12        12        20        21
         2        12        20        20        21
         2        12        13        13        21
         2        12        13        21        21
         2        12        20        21        21
         2         6        13        13        14
         2        13        13        14        21
         2        13        14        21        21
         2         6         6        13        14
         2         6        13        14        14
         2        13        14        14        21
         2        14        14        15        23
         2        14        14        22        23
         2        14        22        22        23
         2        14        15        15        23
         2        14        15        23        23
         2        14        22        23        23
         2        15        15        16        24
         2        15        15        23        24
         2        15        23        23        24
         2        15        16        16        24
         2        15        16        24        24
         2        15        23        24        24
         2        16        16        17        25
         2        16        16        24        25
         2        16        24        24        25
         2        16        17        17        25
         2        16        17        25        25
         2        16        24        25        25
         2        17        17        18        26
         2        17        17        25        26
         2        17        25        25        26
         2        17        18        18        26
         2        17        18        26        26
         2        17        25        26        26
         2        18        18        19        27
         2        18        18        26        27
         2        18        26        26        27
         2        18        19        19        27
         2        18        19        27        27
         2        18        26        27        27
         2        19        19        20        28
         2        19        19        27        28
         2        19        27        27        28
         2        19        20        20        28
         2        19        20        28        28
         2        19        27        28        28
         2        20        20        21        29
         2        20        20        28        29
         2        20        28        28        29
         2        20        21        21        29
         2        20        21        29        29
         2        20        28        29        29
         2        14        21        21        22
         2        21        21        22        29
         2        21        22        29        29
         2        14        14        21        22
         2        14        21        22        22
         2        21        22        22        29
         2        22        22        23        31
         2        22        22        30        31
         2        22        30        30        31
         2        22        23        23        31
         2        22        23        31        31
         2        22        30        31        31
         2        23        23        24        32
         2        23        23        31        32
         2        23        31        31        32
         2        23        24        24        32
         2        23        24        32        32
         2        23        31        32        32
         2        24        24        25        33
         2        24        24        32        33
         2        24        32        32        33
         2        24        25        25        33
         2        24        25        33        33
         2        24        32        33        33
         2        25        25        26        34
         2        25        25        33        34
         2        25        33        33        34
         2        25        26        26        34
         2        25        26        34        34
         2        25        33        34        34
         2        26        26        27        33
         2        26        26        33        34
         2        26        33        34        34
         2        26        27        27        33
         2        26        27        33        33
         2        26        33        33        34
         2        27        27        28        32
         2        27        27        32        33
         2        27        32        33        33
         2        27        28        28        32
         2        27        28        32        32
         2        27        32        32        33
         2        28        28        29        31
         2        28        28        31        32
         2        28        31        32        32
         2        28        29        29        31
         2        28        29        31        31
         2        28        31        31        32
         2        22        29        29        30
         2        29        29        30        31
         2        29        30        31        31
         2        22        22        29        30
         2        22        29        30        30
         2        29        30        30        31
