  COHP#       atomMU       atomNU     distance     translation      ICOHP (at) eF   for spin  1
      1          Ba1          Ba1      5.05476       0   0  -1          -76.26854 
      1       Ba1_5s       Ba1_5s      5.05476       0   0  -1          -34.97532 
      1       Ba1_6s       Ba1_5s      5.05476       0   0  -1           -1.03198 
      1     Ba1_5p_y       Ba1_5s      5.05476       0   0  -1           -0.00001 
      1     Ba1_5p_z       Ba1_5s      5.05476       0   0  -1           -0.00442 
      1     Ba1_5p_x       Ba1_5s      5.05476       0   0  -1           -0.00000 
      1       Ba1_5s       Ba1_6s      5.05476       0   0  -1           -1.03198 
      1       Ba1_6s       Ba1_6s      5.05476       0   0  -1            1.92106 
      1     Ba1_5p_y       Ba1_6s      5.05476       0   0  -1           -0.00002 
      1     Ba1_5p_z       Ba1_6s      5.05476       0   0  -1           -0.04576 
      1     Ba1_5p_x       Ba1_6s      5.05476       0   0  -1           -0.00000 
      1       Ba1_5s     Ba1_5p_y      5.05476       0   0  -1           -0.00001 
      1       Ba1_6s     Ba1_5p_y      5.05476       0   0  -1           -0.00002 
      1     Ba1_5p_y     Ba1_5p_y      5.05476       0   0  -1          -13.60490 
      1     Ba1_5p_z     Ba1_5p_y      5.05476       0   0  -1           -0.00000 
      1     Ba1_5p_x     Ba1_5p_y      5.05476       0   0  -1           -0.00000 
      1       Ba1_5s     Ba1_5p_z      5.05476       0   0  -1           -0.00442 
      1       Ba1_6s     Ba1_5p_z      5.05476       0   0  -1           -0.04576 
      1     Ba1_5p_y     Ba1_5p_z      5.05476       0   0  -1           -0.00000 
      1     Ba1_5p_z     Ba1_5p_z      5.05476       0   0  -1          -13.83818 
      1     Ba1_5p_x     Ba1_5p_z      5.05476       0   0  -1           -0.00000 
      1       Ba1_5s     Ba1_5p_x      5.05476       0   0  -1           -0.00000 
      1       Ba1_6s     Ba1_5p_x      5.05476       0   0  -1           -0.00000 
      1     Ba1_5p_y     Ba1_5p_x      5.05476       0   0  -1           -0.00000 
      1     Ba1_5p_z     Ba1_5p_x      5.05476       0   0  -1           -0.00000 
      1     Ba1_5p_x     Ba1_5p_x      5.05476       0   0  -1          -13.60684 
      2          Ba1          Ba1      5.33154      -1  -1   0           -0.04675 
      2       Ba1_5s       Ba1_5s      5.33154      -1  -1   0           -0.02014 
      2       Ba1_6s       Ba1_5s      5.33154      -1  -1   0           -0.00105 
      2     Ba1_5p_y       Ba1_5s      5.33154      -1  -1   0           -0.00197 
      2     Ba1_5p_z       Ba1_5s      5.33154      -1  -1   0           -0.00013 
      2     Ba1_5p_x       Ba1_5s      5.33154      -1  -1   0           -0.00238 
      2       Ba1_5s       Ba1_6s      5.33154      -1  -1   0           -0.00105 
      2       Ba1_6s       Ba1_6s      5.33154      -1  -1   0           -0.01454 
      2     Ba1_5p_y       Ba1_6s      5.33154      -1  -1   0           -0.00009 
      2     Ba1_5p_z       Ba1_6s      5.33154      -1  -1   0           -0.00014 
      2     Ba1_5p_x       Ba1_6s      5.33154      -1  -1   0            0.00007 
      2       Ba1_5s     Ba1_5p_y      5.33154      -1  -1   0           -0.00216 
      2       Ba1_6s     Ba1_5p_y      5.33154      -1  -1   0           -0.00009 
      2     Ba1_5p_y     Ba1_5p_y      5.33154      -1  -1   0           -0.00011 
      2     Ba1_5p_z     Ba1_5p_y      5.33154      -1  -1   0            0.00001 
      2     Ba1_5p_x     Ba1_5p_y      5.33154      -1  -1   0           -0.00029 
      2       Ba1_5s     Ba1_5p_z      5.33154      -1  -1   0           -0.00013 
      2       Ba1_6s     Ba1_5p_z      5.33154      -1  -1   0           -0.00015 
      2     Ba1_5p_y     Ba1_5p_z      5.33154      -1  -1   0            0.00001 
      2     Ba1_5p_z     Ba1_5p_z      5.33154      -1  -1   0            0.00001 
      2     Ba1_5p_x     Ba1_5p_z      5.33154      -1  -1   0            0.00001 
      2       Ba1_5s     Ba1_5p_x      5.33154      -1  -1   0           -0.00195 
      2       Ba1_6s     Ba1_5p_x      5.33154      -1  -1   0           -0.00011 
      2     Ba1_5p_y     Ba1_5p_x      5.33154      -1  -1   0           -0.00029 
      2     Ba1_5p_z     Ba1_5p_x      5.33154      -1  -1   0            0.00001 
      2     Ba1_5p_x     Ba1_5p_x      5.33154      -1  -1   0           -0.00010 
      3          Ba1          Ba1      3.76997       0  -1   0           -0.76527 
      3       Ba1_5s       Ba1_5s      3.76997       0  -1   0           -0.01245 
      3       Ba1_6s       Ba1_5s      3.76997       0  -1   0           -0.30858 
      3     Ba1_5p_y       Ba1_5s      3.76997       0  -1   0            0.00024 
      3     Ba1_5p_z       Ba1_5s      3.76997       0  -1   0           -0.00121 
      3     Ba1_5p_x       Ba1_5s      3.76997       0  -1   0           -0.00002 
      3       Ba1_5s       Ba1_6s      3.76997       0  -1   0           -0.30860 
      3       Ba1_6s       Ba1_6s      3.76997       0  -1   0           -0.00536 
      3     Ba1_5p_y       Ba1_6s      3.76997       0  -1   0           -0.06258 
      3     Ba1_5p_z       Ba1_6s      3.76997       0  -1   0           -0.00064 
      3     Ba1_5p_x       Ba1_6s      3.76997       0  -1   0           -0.00007 
      3       Ba1_5s     Ba1_5p_y      3.76997       0  -1   0            0.00024 
      3       Ba1_6s     Ba1_5p_y      3.76997       0  -1   0           -0.06421 
      3     Ba1_5p_y     Ba1_5p_y      3.76997       0  -1   0            0.00082 
      3     Ba1_5p_z     Ba1_5p_y      3.76997       0  -1   0           -0.00022 
      3     Ba1_5p_x     Ba1_5p_y      3.76997       0  -1   0           -0.00000 
      3       Ba1_5s     Ba1_5p_z      3.76997       0  -1   0           -0.00121 
      3       Ba1_6s     Ba1_5p_z      3.76997       0  -1   0           -0.00064 
      3     Ba1_5p_y     Ba1_5p_z      3.76997       0  -1   0           -0.00019 
      3     Ba1_5p_z     Ba1_5p_z      3.76997       0  -1   0           -0.00004 
      3     Ba1_5p_x     Ba1_5p_z      3.76997       0  -1   0            0.00000 
      3       Ba1_5s     Ba1_5p_x      3.76997       0  -1   0           -0.00001 
      3       Ba1_6s     Ba1_5p_x      3.76997       0  -1   0           -0.00002 
      3     Ba1_5p_y     Ba1_5p_x      3.76997       0  -1   0           -0.00000 
      3     Ba1_5p_z     Ba1_5p_x      3.76997       0  -1   0           -0.00000 
      3     Ba1_5p_x     Ba1_5p_x      3.76997       0  -1   0           -0.00053 
      4          Ba1          Ba1      5.33154       1  -1   0           -0.04668 
      4       Ba1_5s       Ba1_5s      5.33154       1  -1   0           -0.02013 
      4       Ba1_6s       Ba1_5s      5.33154       1  -1   0           -0.00105 
      4     Ba1_5p_y       Ba1_5s      5.33154       1  -1   0           -0.00225 
      4     Ba1_5p_z       Ba1_5s      5.33154       1  -1   0           -0.00013 
      4     Ba1_5p_x       Ba1_5s      5.33154       1  -1   0           -0.00227 
      4       Ba1_5s       Ba1_6s      5.33154       1  -1   0           -0.00105 
      4       Ba1_6s       Ba1_6s      5.33154       1  -1   0           -0.01453 
      4     Ba1_5p_y       Ba1_6s      5.33154       1  -1   0            0.00002 
      4     Ba1_5p_z       Ba1_6s      5.33154       1  -1   0           -0.00015 
      4     Ba1_5p_x       Ba1_6s      5.33154       1  -1   0            0.00000 
      4       Ba1_5s     Ba1_5p_y      5.33154       1  -1   0           -0.00199 
      4       Ba1_6s     Ba1_5p_y      5.33154       1  -1   0           -0.00008 
      4     Ba1_5p_y     Ba1_5p_y      5.33154       1  -1   0           -0.00010 
      4     Ba1_5p_z     Ba1_5p_y      5.33154       1  -1   0            0.00001 
      4     Ba1_5p_x     Ba1_5p_y      5.33154       1  -1   0           -0.00030 
      4       Ba1_5s     Ba1_5p_z      5.33154       1  -1   0           -0.00013 
      4       Ba1_6s     Ba1_5p_z      5.33154       1  -1   0           -0.00014 
      4     Ba1_5p_y     Ba1_5p_z      5.33154       1  -1   0            0.00001 
      4     Ba1_5p_z     Ba1_5p_z      5.33154       1  -1   0            0.00001 
      4     Ba1_5p_x     Ba1_5p_z      5.33154       1  -1   0            0.00001 
      4       Ba1_5s     Ba1_5p_x      5.33154       1  -1   0           -0.00193 
      4       Ba1_6s     Ba1_5p_x      5.33154       1  -1   0           -0.00011 
      4     Ba1_5p_y     Ba1_5p_x      5.33154       1  -1   0           -0.00028 
      4     Ba1_5p_z     Ba1_5p_x      5.33154       1  -1   0            0.00001 
      4     Ba1_5p_x     Ba1_5p_x      5.33154       1  -1   0           -0.00011 
      5          Ba1          Ba1      3.76997      -1   0   0           -0.76582 
      5       Ba1_5s       Ba1_5s      3.76997      -1   0   0           -0.01243 
      5       Ba1_6s       Ba1_5s      3.76997      -1   0   0           -0.30853 
      5     Ba1_5p_y       Ba1_5s      3.76997      -1   0   0           -0.00001 
      5     Ba1_5p_z       Ba1_5s      3.76997      -1   0   0           -0.00121 
      5     Ba1_5p_x       Ba1_5s      3.76997      -1   0   0            0.00023 
      5       Ba1_5s       Ba1_6s      3.76997      -1   0   0           -0.30855 
      5       Ba1_6s       Ba1_6s      3.76997      -1   0   0           -0.00537 
      5     Ba1_5p_y       Ba1_6s      3.76997      -1   0   0           -0.00003 
      5     Ba1_5p_z       Ba1_6s      3.76997      -1   0   0           -0.00064 
      5     Ba1_5p_x       Ba1_6s      3.76997      -1   0   0           -0.06272 
      5       Ba1_5s     Ba1_5p_y      3.76997      -1   0   0           -0.00001 
      5       Ba1_6s     Ba1_5p_y      3.76997      -1   0   0           -0.00006 
      5     Ba1_5p_y     Ba1_5p_y      3.76997      -1   0   0           -0.00054 
      5     Ba1_5p_z     Ba1_5p_y      3.76997      -1   0   0           -0.00000 
      5     Ba1_5p_x     Ba1_5p_y      3.76997      -1   0   0           -0.00000 
      5       Ba1_5s     Ba1_5p_z      3.76997      -1   0   0           -0.00121 
      5       Ba1_6s     Ba1_5p_z      3.76997      -1   0   0           -0.00064 
      5     Ba1_5p_y     Ba1_5p_z      3.76997      -1   0   0           -0.00000 
      5     Ba1_5p_z     Ba1_5p_z      3.76997      -1   0   0           -0.00004 
      5     Ba1_5p_x     Ba1_5p_z      3.76997      -1   0   0           -0.00019 
      5       Ba1_5s     Ba1_5p_x      3.76997      -1   0   0            0.00023 
      5       Ba1_6s     Ba1_5p_x      3.76997      -1   0   0           -0.06469 
      5     Ba1_5p_y     Ba1_5p_x      3.76997      -1   0   0           -0.00000 
      5     Ba1_5p_z     Ba1_5p_x      3.76997      -1   0   0           -0.00022 
      5     Ba1_5p_x     Ba1_5p_x      3.76997      -1   0   0            0.00082 
      6          Ba1          Ba1      3.76997       1   0   0           -0.76582 
      6       Ba1_5s       Ba1_5s      3.76997       1   0   0           -0.01243 
      6       Ba1_6s       Ba1_5s      3.76997       1   0   0           -0.30855 
      6     Ba1_5p_y       Ba1_5s      3.76997       1   0   0           -0.00001 
      6     Ba1_5p_z       Ba1_5s      3.76997       1   0   0           -0.00121 
      6     Ba1_5p_x       Ba1_5s      3.76997       1   0   0            0.00023 
      6       Ba1_5s       Ba1_6s      3.76997       1   0   0           -0.30853 
      6       Ba1_6s       Ba1_6s      3.76997       1   0   0           -0.00537 
      6     Ba1_5p_y       Ba1_6s      3.76997       1   0   0           -0.00006 
      6     Ba1_5p_z       Ba1_6s      3.76997       1   0   0           -0.00064 
      6     Ba1_5p_x       Ba1_6s      3.76997       1   0   0           -0.06469 
      6       Ba1_5s     Ba1_5p_y      3.76997       1   0   0           -0.00001 
      6       Ba1_6s     Ba1_5p_y      3.76997       1   0   0           -0.00003 
      6     Ba1_5p_y     Ba1_5p_y      3.76997       1   0   0           -0.00054 
      6     Ba1_5p_z     Ba1_5p_y      3.76997       1   0   0           -0.00000 
      6     Ba1_5p_x     Ba1_5p_y      3.76997       1   0   0           -0.00000 
      6       Ba1_5s     Ba1_5p_z      3.76997       1   0   0           -0.00121 
      6       Ba1_6s     Ba1_5p_z      3.76997       1   0   0           -0.00064 
      6     Ba1_5p_y     Ba1_5p_z      3.76997       1   0   0           -0.00000 
      6     Ba1_5p_z     Ba1_5p_z      3.76997       1   0   0           -0.00004 
      6     Ba1_5p_x     Ba1_5p_z      3.76997       1   0   0           -0.00022 
      6       Ba1_5s     Ba1_5p_x      3.76997       1   0   0            0.00023 
      6       Ba1_6s     Ba1_5p_x      3.76997       1   0   0           -0.06272 
      6     Ba1_5p_y     Ba1_5p_x      3.76997       1   0   0           -0.00000 
      6     Ba1_5p_z     Ba1_5p_x      3.76997       1   0   0           -0.00019 
      6     Ba1_5p_x     Ba1_5p_x      3.76997       1   0   0            0.00082 
      7          Ba1          Ba1      5.33154      -1   1   0           -0.04668 
      7       Ba1_5s       Ba1_5s      5.33154      -1   1   0           -0.02013 
      7       Ba1_6s       Ba1_5s      5.33154      -1   1   0           -0.00105 
      7     Ba1_5p_y       Ba1_5s      5.33154      -1   1   0           -0.00199 
      7     Ba1_5p_z       Ba1_5s      5.33154      -1   1   0           -0.00013 
      7     Ba1_5p_x       Ba1_5s      5.33154      -1   1   0           -0.00193 
      7       Ba1_5s       Ba1_6s      5.33154      -1   1   0           -0.00105 
      7       Ba1_6s       Ba1_6s      5.33154      -1   1   0           -0.01453 
      7     Ba1_5p_y       Ba1_6s      5.33154      -1   1   0           -0.00008 
      7     Ba1_5p_z       Ba1_6s      5.33154      -1   1   0           -0.00014 
      7     Ba1_5p_x       Ba1_6s      5.33154      -1   1   0           -0.00011 
      7       Ba1_5s     Ba1_5p_y      5.33154      -1   1   0           -0.00225 
      7       Ba1_6s     Ba1_5p_y      5.33154      -1   1   0            0.00002 
      7     Ba1_5p_y     Ba1_5p_y      5.33154      -1   1   0           -0.00010 
      7     Ba1_5p_z     Ba1_5p_y      5.33154      -1   1   0            0.00001 
      7     Ba1_5p_x     Ba1_5p_y      5.33154      -1   1   0           -0.00028 
      7       Ba1_5s     Ba1_5p_z      5.33154      -1   1   0           -0.00013 
      7       Ba1_6s     Ba1_5p_z      5.33154      -1   1   0           -0.00015 
      7     Ba1_5p_y     Ba1_5p_z      5.33154      -1   1   0            0.00001 
      7     Ba1_5p_z     Ba1_5p_z      5.33154      -1   1   0            0.00001 
      7     Ba1_5p_x     Ba1_5p_z      5.33154      -1   1   0            0.00001 
      7       Ba1_5s     Ba1_5p_x      5.33154      -1   1   0           -0.00227 
      7       Ba1_6s     Ba1_5p_x      5.33154      -1   1   0            0.00000 
      7     Ba1_5p_y     Ba1_5p_x      5.33154      -1   1   0           -0.00030 
      7     Ba1_5p_z     Ba1_5p_x      5.33154      -1   1   0            0.00001 
      7     Ba1_5p_x     Ba1_5p_x      5.33154      -1   1   0           -0.00011 
      8          Ba1          Ba1      3.76997       0   1   0           -0.76527 
      8       Ba1_5s       Ba1_5s      3.76997       0   1   0           -0.01245 
      8       Ba1_6s       Ba1_5s      3.76997       0   1   0           -0.30860 
      8     Ba1_5p_y       Ba1_5s      3.76997       0   1   0            0.00024 
      8     Ba1_5p_z       Ba1_5s      3.76997       0   1   0           -0.00121 
      8     Ba1_5p_x       Ba1_5s      3.76997       0   1   0           -0.00001 
      8       Ba1_5s       Ba1_6s      3.76997       0   1   0           -0.30858 
      8       Ba1_6s       Ba1_6s      3.76997       0   1   0           -0.00536 
      8     Ba1_5p_y       Ba1_6s      3.76997       0   1   0           -0.06421 
      8     Ba1_5p_z       Ba1_6s      3.76997       0   1   0           -0.00064 
      8     Ba1_5p_x       Ba1_6s      3.76997       0   1   0           -0.00002 
      8       Ba1_5s     Ba1_5p_y      3.76997       0   1   0            0.00024 
      8       Ba1_6s     Ba1_5p_y      3.76997       0   1   0           -0.06258 
      8     Ba1_5p_y     Ba1_5p_y      3.76997       0   1   0            0.00082 
      8     Ba1_5p_z     Ba1_5p_y      3.76997       0   1   0           -0.00019 
      8     Ba1_5p_x     Ba1_5p_y      3.76997       0   1   0           -0.00000 
      8       Ba1_5s     Ba1_5p_z      3.76997       0   1   0           -0.00121 
      8       Ba1_6s     Ba1_5p_z      3.76997       0   1   0           -0.00064 
      8     Ba1_5p_y     Ba1_5p_z      3.76997       0   1   0           -0.00022 
      8     Ba1_5p_z     Ba1_5p_z      3.76997       0   1   0           -0.00004 
      8     Ba1_5p_x     Ba1_5p_z      3.76997       0   1   0           -0.00000 
      8       Ba1_5s     Ba1_5p_x      3.76997       0   1   0           -0.00002 
      8       Ba1_6s     Ba1_5p_x      3.76997       0   1   0           -0.00007 
      8     Ba1_5p_y     Ba1_5p_x      3.76997       0   1   0           -0.00000 
      8     Ba1_5p_z     Ba1_5p_x      3.76997       0   1   0            0.00000 
      8     Ba1_5p_x     Ba1_5p_x      3.76997       0   1   0           -0.00053 
      9          Ba1          Ba1      5.33154       1   1   0           -0.04675 
      9       Ba1_5s       Ba1_5s      5.33154       1   1   0           -0.02014 
      9       Ba1_6s       Ba1_5s      5.33154       1   1   0           -0.00105 
      9     Ba1_5p_y       Ba1_5s      5.33154       1   1   0           -0.00216 
      9     Ba1_5p_z       Ba1_5s      5.33154       1   1   0           -0.00013 
      9     Ba1_5p_x       Ba1_5s      5.33154       1   1   0           -0.00195 
      9       Ba1_5s       Ba1_6s      5.33154       1   1   0           -0.00105 
      9       Ba1_6s       Ba1_6s      5.33154       1   1   0           -0.01454 
      9     Ba1_5p_y       Ba1_6s      5.33154       1   1   0           -0.00009 
      9     Ba1_5p_z       Ba1_6s      5.33154       1   1   0           -0.00015 
      9     Ba1_5p_x       Ba1_6s      5.33154       1   1   0           -0.00011 
      9       Ba1_5s     Ba1_5p_y      5.33154       1   1   0           -0.00197 
      9       Ba1_6s     Ba1_5p_y      5.33154       1   1   0           -0.00009 
      9     Ba1_5p_y     Ba1_5p_y      5.33154       1   1   0           -0.00011 
      9     Ba1_5p_z     Ba1_5p_y      5.33154       1   1   0            0.00001 
      9     Ba1_5p_x     Ba1_5p_y      5.33154       1   1   0           -0.00029 
      9       Ba1_5s     Ba1_5p_z      5.33154       1   1   0           -0.00013 
      9       Ba1_6s     Ba1_5p_z      5.33154       1   1   0           -0.00014 
      9     Ba1_5p_y     Ba1_5p_z      5.33154       1   1   0            0.00001 
      9     Ba1_5p_z     Ba1_5p_z      5.33154       1   1   0            0.00001 
      9     Ba1_5p_x     Ba1_5p_z      5.33154       1   1   0            0.00001 
      9       Ba1_5s     Ba1_5p_x      5.33154       1   1   0           -0.00238 
      9       Ba1_6s     Ba1_5p_x      5.33154       1   1   0            0.00007 
      9     Ba1_5p_y     Ba1_5p_x      5.33154       1   1   0           -0.00029 
      9     Ba1_5p_z     Ba1_5p_x      5.33154       1   1   0            0.00001 
      9     Ba1_5p_x     Ba1_5p_x      5.33154       1   1   0           -0.00010 
     10          Ba1          Ba1      5.05476       0   0   1          -76.26854 
     10       Ba1_5s       Ba1_5s      5.05476       0   0   1          -34.97532 
     10       Ba1_6s       Ba1_5s      5.05476       0   0   1           -1.03198 
     10     Ba1_5p_y       Ba1_5s      5.05476       0   0   1           -0.00001 
     10     Ba1_5p_z       Ba1_5s      5.05476       0   0   1           -0.00442 
     10     Ba1_5p_x       Ba1_5s      5.05476       0   0   1           -0.00000 
     10       Ba1_5s       Ba1_6s      5.05476       0   0   1           -1.03198 
     10       Ba1_6s       Ba1_6s      5.05476       0   0   1            1.92106 
     10     Ba1_5p_y       Ba1_6s      5.05476       0   0   1           -0.00002 
     10     Ba1_5p_z       Ba1_6s      5.05476       0   0   1           -0.04576 
     10     Ba1_5p_x       Ba1_6s      5.05476       0   0   1           -0.00000 
     10       Ba1_5s     Ba1_5p_y      5.05476       0   0   1           -0.00001 
     10       Ba1_6s     Ba1_5p_y      5.05476       0   0   1           -0.00002 
     10     Ba1_5p_y     Ba1_5p_y      5.05476       0   0   1          -13.60490 
     10     Ba1_5p_z     Ba1_5p_y      5.05476       0   0   1           -0.00000 
     10     Ba1_5p_x     Ba1_5p_y      5.05476       0   0   1           -0.00000 
     10       Ba1_5s     Ba1_5p_z      5.05476       0   0   1           -0.00442 
     10       Ba1_6s     Ba1_5p_z      5.05476       0   0   1           -0.04576 
     10     Ba1_5p_y     Ba1_5p_z      5.05476       0   0   1           -0.00000 
     10     Ba1_5p_z     Ba1_5p_z      5.05476       0   0   1          -13.83818 
     10     Ba1_5p_x     Ba1_5p_z      5.05476       0   0   1           -0.00000 
     10       Ba1_5s     Ba1_5p_x      5.05476       0   0   1           -0.00000 
     10       Ba1_6s     Ba1_5p_x      5.05476       0   0   1           -0.00000 
     10     Ba1_5p_y     Ba1_5p_x      5.05476       0   0   1           -0.00000 
     10     Ba1_5p_z     Ba1_5p_x      5.05476       0   0   1           -0.00000 
     10     Ba1_5p_x     Ba1_5p_x      5.05476       0   0   1          -13.60684 
     11          Ti2          Ba1      3.64098       0   0   0           -1.13909 
     11       Ti2_3s       Ba1_5s      3.64098       0   0   0           -0.01211 
     11       Ti2_4s       Ba1_5s      3.64098       0   0   0           -0.35352 
     11     Ti2_3p_y       Ba1_5s      3.64098       0   0   0           -0.00006 
     11     Ti2_3p_z       Ba1_5s      3.64098       0   0   0           -0.00010 
     11     Ti2_3p_x       Ba1_5s      3.64098       0   0   0           -0.00007 
     11    Ti2_3d_xy       Ba1_5s      3.64098       0   0   0           -0.00467 
     11    Ti2_3d_yz       Ba1_5s      3.64098       0   0   0            0.00005 
     11   Ti2_3d_z^2       Ba1_5s      3.64098       0   0   0           -0.00009 
     11    Ti2_3d_xz       Ba1_5s      3.64098       0   0   0            0.00005 
     11 Ti2_3d_x^2-y^2       Ba1_5s      3.64098       0   0   0            0.00000 
     11       Ti2_3s       Ba1_6s      3.64098       0   0   0           -0.62979 
     11       Ti2_4s       Ba1_6s      3.64098       0   0   0           -0.00658 
     11     Ti2_3p_y       Ba1_6s      3.64098       0   0   0           -0.00093 
     11     Ti2_3p_z       Ba1_6s      3.64098       0   0   0            0.00015 
     11     Ti2_3p_x       Ba1_6s      3.64098       0   0   0           -0.00085 
     11    Ti2_3d_xy       Ba1_6s      3.64098       0   0   0           -0.00889 
     11    Ti2_3d_yz       Ba1_6s      3.64098       0   0   0           -0.00049 
     11   Ti2_3d_z^2       Ba1_6s      3.64098       0   0   0            0.00034 
     11    Ti2_3d_xz       Ba1_6s      3.64098       0   0   0           -0.00066 
     11 Ti2_3d_x^2-y^2       Ba1_6s      3.64098       0   0   0            0.00000 
     11       Ti2_3s     Ba1_5p_y      3.64098       0   0   0           -0.00019 
     11       Ti2_4s     Ba1_5p_y      3.64098       0   0   0           -0.05276 
     11     Ti2_3p_y     Ba1_5p_y      3.64098       0   0   0            0.00000 
     11     Ti2_3p_z     Ba1_5p_y      3.64098       0   0   0           -0.00003 
     11     Ti2_3p_x     Ba1_5p_y      3.64098       0   0   0           -0.00000 
     11    Ti2_3d_xy     Ba1_5p_y      3.64098       0   0   0           -0.00019 
     11    Ti2_3d_yz     Ba1_5p_y      3.64098       0   0   0           -0.00027 
     11   Ti2_3d_z^2     Ba1_5p_y      3.64098       0   0   0           -0.00074 
     11    Ti2_3d_xz     Ba1_5p_y      3.64098       0   0   0           -0.00077 
     11 Ti2_3d_x^2-y^2     Ba1_5p_y      3.64098       0   0   0           -0.00188 
     11       Ti2_3s     Ba1_5p_z      3.64098       0   0   0           -0.00046 
     11       Ti2_4s     Ba1_5p_z      3.64098       0   0   0           -0.00076 
     11     Ti2_3p_y     Ba1_5p_z      3.64098       0   0   0           -0.00000 
     11     Ti2_3p_z     Ba1_5p_z      3.64098       0   0   0            0.00000 
     11     Ti2_3p_x     Ba1_5p_z      3.64098       0   0   0           -0.00000 
     11    Ti2_3d_xy     Ba1_5p_z      3.64098       0   0   0           -0.00358 
     11    Ti2_3d_yz     Ba1_5p_z      3.64098       0   0   0            0.00001 
     11   Ti2_3d_z^2     Ba1_5p_z      3.64098       0   0   0            0.00031 
     11    Ti2_3d_xz     Ba1_5p_z      3.64098       0   0   0            0.00002 
     11 Ti2_3d_x^2-y^2     Ba1_5p_z      3.64098       0   0   0           -0.00000 
     11       Ti2_3s     Ba1_5p_x      3.64098       0   0   0           -0.00030 
     11       Ti2_4s     Ba1_5p_x      3.64098       0   0   0           -0.05548 
     11     Ti2_3p_y     Ba1_5p_x      3.64098       0   0   0           -0.00000 
     11     Ti2_3p_z     Ba1_5p_x      3.64098       0   0   0           -0.00003 
     11     Ti2_3p_x     Ba1_5p_x      3.64098       0   0   0            0.00000 
     11    Ti2_3d_xy     Ba1_5p_x      3.64098       0   0   0           -0.00018 
     11    Ti2_3d_yz     Ba1_5p_x      3.64098       0   0   0           -0.00078 
     11   Ti2_3d_z^2     Ba1_5p_x      3.64098       0   0   0           -0.00073 
     11    Ti2_3d_xz     Ba1_5p_x      3.64098       0   0   0           -0.00022 
     11 Ti2_3d_x^2-y^2     Ba1_5p_x      3.64098       0   0   0           -0.00188 
     12          Ti2          Ba1      3.64098       1   0   0           -1.13900 
     12       Ti2_3s       Ba1_5s      3.64098       1   0   0           -0.01212 
     12       Ti2_4s       Ba1_5s      3.64098       1   0   0           -0.35425 
     12     Ti2_3p_y       Ba1_5s      3.64098       1   0   0           -0.00007 
     12     Ti2_3p_z       Ba1_5s      3.64098       1   0   0           -0.00010 
     12     Ti2_3p_x       Ba1_5s      3.64098       1   0   0           -0.00006 
     12    Ti2_3d_xy       Ba1_5s      3.64098       1   0   0           -0.00468 
     12    Ti2_3d_yz       Ba1_5s      3.64098       1   0   0            0.00005 
     12   Ti2_3d_z^2       Ba1_5s      3.64098       1   0   0           -0.00009 
     12    Ti2_3d_xz       Ba1_5s      3.64098       1   0   0            0.00005 
     12 Ti2_3d_x^2-y^2       Ba1_5s      3.64098       1   0   0            0.00000 
     12       Ti2_3s       Ba1_6s      3.64098       1   0   0           -0.62960 
     12       Ti2_4s       Ba1_6s      3.64098       1   0   0           -0.00639 
     12     Ti2_3p_y       Ba1_6s      3.64098       1   0   0           -0.00082 
     12     Ti2_3p_z       Ba1_6s      3.64098       1   0   0            0.00015 
     12     Ti2_3p_x       Ba1_6s      3.64098       1   0   0           -0.00094 
     12    Ti2_3d_xy       Ba1_6s      3.64098       1   0   0           -0.00889 
     12    Ti2_3d_yz       Ba1_6s      3.64098       1   0   0           -0.00071 
     12   Ti2_3d_z^2       Ba1_6s      3.64098       1   0   0            0.00034 
     12    Ti2_3d_xz       Ba1_6s      3.64098       1   0   0           -0.00045 
     12 Ti2_3d_x^2-y^2       Ba1_6s      3.64098       1   0   0            0.00002 
     12       Ti2_3s     Ba1_5p_y      3.64098       1   0   0           -0.00028 
     12       Ti2_4s     Ba1_5p_y      3.64098       1   0   0           -0.05497 
     12     Ti2_3p_y     Ba1_5p_y      3.64098       1   0   0            0.00000 
     12     Ti2_3p_z     Ba1_5p_y      3.64098       1   0   0           -0.00003 
     12     Ti2_3p_x     Ba1_5p_y      3.64098       1   0   0           -0.00000 
     12    Ti2_3d_xy     Ba1_5p_y      3.64098       1   0   0           -0.00018 
     12    Ti2_3d_yz     Ba1_5p_y      3.64098       1   0   0           -0.00024 
     12   Ti2_3d_z^2     Ba1_5p_y      3.64098       1   0   0           -0.00074 
     12    Ti2_3d_xz     Ba1_5p_y      3.64098       1   0   0           -0.00078 
     12 Ti2_3d_x^2-y^2     Ba1_5p_y      3.64098       1   0   0           -0.00188 
     12       Ti2_3s     Ba1_5p_z      3.64098       1   0   0           -0.00044 
     12       Ti2_4s     Ba1_5p_z      3.64098       1   0   0           -0.00092 
     12     Ti2_3p_y     Ba1_5p_z      3.64098       1   0   0           -0.00000 
     12     Ti2_3p_z     Ba1_5p_z      3.64098       1   0   0            0.00000 
     12     Ti2_3p_x     Ba1_5p_z      3.64098       1   0   0           -0.00000 
     12    Ti2_3d_xy     Ba1_5p_z      3.64098       1   0   0           -0.00358 
     12    Ti2_3d_yz     Ba1_5p_z      3.64098       1   0   0            0.00003 
     12   Ti2_3d_z^2     Ba1_5p_z      3.64098       1   0   0            0.00031 
     12    Ti2_3d_xz     Ba1_5p_z      3.64098       1   0   0            0.00001 
     12 Ti2_3d_x^2-y^2     Ba1_5p_z      3.64098       1   0   0           -0.00000 
     12       Ti2_3s     Ba1_5p_x      3.64098       1   0   0           -0.00021 
     12       Ti2_4s     Ba1_5p_x      3.64098       1   0   0           -0.05259 
     12     Ti2_3p_y     Ba1_5p_x      3.64098       1   0   0           -0.00000 
     12     Ti2_3p_z     Ba1_5p_x      3.64098       1   0   0           -0.00003 
     12     Ti2_3p_x     Ba1_5p_x      3.64098       1   0   0            0.00000 
     12    Ti2_3d_xy     Ba1_5p_x      3.64098       1   0   0           -0.00019 
     12    Ti2_3d_yz     Ba1_5p_x      3.64098       1   0   0           -0.00077 
     12   Ti2_3d_z^2     Ba1_5p_x      3.64098       1   0   0           -0.00081 