       N       E                     dE             d eps       ncg     rms          rms(c)
DAV:   1     0.445045151954E+03    0.44505E+03   -0.23433E+04  1904   0.178E+03
DAV:   2     0.162230597972E+02   -0.42882E+03   -0.40917E+03  1996   0.446E+02
DAV:   3    -0.386399208398E+02   -0.54863E+02   -0.53263E+02  2848   0.144E+02
DAV:   4    -0.415200400023E+02   -0.28801E+01   -0.28691E+01  2632   0.299E+01
DAV:   5    -0.416174299820E+02   -0.97390E-01   -0.97360E-01  2480   0.442E+00
DAV:   6    -0.416187638122E+02   -0.13338E-02   -0.13337E-02  2664   0.518E-01
DAV:   7    -0.416187790881E+02   -0.15276E-04   -0.15275E-04  2492   0.579E-02
DAV:   8    -0.416187793179E+02   -0.22983E-06   -0.22988E-06  1580   0.563E-03
   1 F= -.41618779E+02 E0= -.41618779E+02  d E =0.000000E+00
