 vasp.5.4.4.18Apr17-6-g9f103f2a35 (build Dec 11 2022 16:18:32) complex          
  
 executed on             LinuxIFC date 2024.01.17  13:34:10
 running on  128 total cores
 distrk:  each k-point on   32 cores,    4 groups
 distr:  one band on NCORES_PER_BAND=   8 cores,    4 groups


--------------------------------------------------------------------------------------------------------


 INCAR:
 POTCAR:    PAW_PBE Ba_sv 06Sep2000               
 POTCAR:    PAW_PBE Ti_sv 26Sep2005               
 POTCAR:    PAW_PBE O 08Apr2002                   

 ----------------------------------------------------------------------------- 
|                                                                             |
|           W    W    AA    RRRRR   N    N  II  N    N   GGGG   !!!           |
|           W    W   A  A   R    R  NN   N  II  NN   N  G    G  !!!           |
|           W    W  A    A  R    R  N N  N  II  N N  N  G       !!!           |
|           W WW W  AAAAAA  RRRRR   N  N N  II  N  N N  G  GGG   !            |
|           WW  WW  A    A  R   R   N   NN  II  N   NN  G    G                |
|           W    W  A    A  R    R  N    N  II  N    N   GGGG   !!!           |
|                                                                             |
|      You have enabled k-point parallelism (KPAR>1).                         |
|      This developmental code was originally  written by Paul Kent at ORNL,  |
|      and carefully double checked in Vienna.                                |
|      GW as well as linear response parallelism added by Martijn Marsman     |
|      and Georg Kresse.                                                      |
|      Carefully verify results versus KPAR=1.                                |
|      Report problems to Paul Kent and Vienna.                               |
|                                                                             |
 ----------------------------------------------------------------------------- 

 POTCAR:    PAW_PBE Ba_sv 06Sep2000               
   VRHFIN =Ba: 5s5p6s                                                           
   LEXCH  = PE                                                                  
   EATOM  =   700.8560 eV,   51.5115 Ry                                         
                                                                                
   TITEL  = PAW_PBE Ba_sv 06Sep2000                                             
   LULTRA =        F    use ultrasoft PP ?                                      
   IUNSCR =        1    unscreen: 0-lin 1-nonlin 2-no                           
   RPACOR =    2.400    partial core radius                                     
   POMASS =  137.327; ZVAL   =   10.000    mass and valenz                      
   RCORE  =    2.800    outmost cutoff radius                                   
   RWIGS  =    3.740; RWIGS  =    1.979    wigner-seitz radius (au A)           
   ENMAX  =  187.181; ENMIN  =  140.386 eV                                      
   RCLOC  =    2.516    cutoff for local pot                                    
   LCOR   =        T    correct aug charges                                     
   LPAW   =        T    paw PP                                                  
   EAUG   =  351.165                                                            
   DEXC   =    0.000                                                            
   RMAX   =    2.865    core radius for proj-oper                               
   RAUG   =    1.300    factor for augmentation sphere                          
   RDEP   =    2.976    radius for radial grids                                 
   RDEPT  =    2.289    core radius for aug-charge                              
                                                                                
   Atomic configuration                                                         
   13 entries                                                                   
     n  l   j            E        occ.                                          
     1  0  0.50    -37249.5946   2.0000                                         
     2  0  0.50     -5887.1925   2.0000                                         
     2  1  1.50     -5278.3977   6.0000                                         
     3  0  0.50     -1242.7293   2.0000                                         
     3  1  1.50     -1047.6609   6.0000                                         
     3  2  2.50      -764.6158  10.0000                                         
     4  0  0.50      -243.8228   2.0000                                         
     4  1  1.50      -180.9218   6.0000                                         
     4  2  2.50       -89.6477  10.0000                                         
     5  0  0.50       -33.6549   2.0000                                         
     6  0  0.50        -3.2247   1.9900                                         
     5  1  1.50       -18.7193   6.0000                                         
     5  2  2.50        -2.0115   0.0100                                         
   Description                                                                  
     l       E           TYP  RCUT    TYP  RCUT                                 
     0    -33.6549039     23  2.800                                             
     0     -3.2246942     23  2.800                                             
     1    -18.7193050     23  2.700                                             
     1     27.2116520     23  2.700                                             
     2     -2.0115002     23  2.700                                             
     2      0.3057420     23  2.700                                             
  local pseudopotential read in
  partial core-charges read in
  partial kinetic energy density read in
  atomic valenz-charges read in
  non local Contribution for L=           0  read in
    real space projection operators read in
  non local Contribution for L=           0  read in
    real space projection operators read in
  non local Contribution for L=           1  read in
    real space projection operators read in
  non local Contribution for L=           1  read in
    real space projection operators read in
  non local Contribution for L=           2  read in
    real space projection operators read in
  non local Contribution for L=           2  read in
    real space projection operators read in
    PAW grid and wavefunctions read in
 
   number of l-projection  operators is LMAX  =           6
   number of lm-projection operators is LMMAX =          18
 
 POTCAR:    PAW_PBE Ti_sv 26Sep2005               
   VRHFIN =Ti: 3p4s3d                                                           
   LEXCH  = PE                                                                  
   EATOM  =  1588.0892 eV,  116.7213 Ry                                         
                                                                                
   TITEL  = PAW_PBE Ti_sv 26Sep2005                                             
   LULTRA =        F    use ultrasoft PP ?                                      
   IUNSCR =        1    unscreen: 0-lin 1-nonlin 2-no                           
   RPACOR =    2.000    partial core radius                                     
   POMASS =   47.880; ZVAL   =   12.000    mass and valenz                      
   RCORE  =    2.300    outmost cutoff radius                                   
   RWIGS  =    2.300; RWIGS  =    1.217    wigner-seitz radius (au A)           
   ENMAX  =  274.610; ENMIN  =  205.957 eV                                      
   ICORE  =        3    local potential                                         
   LCOR   =        T    correct aug charges                                     
   LPAW   =        T    paw PP                                                  
   EAUG   =  482.848                                                            
   RMAX   =    2.348    core radius for proj-oper                               
   RAUG   =    1.300    factor for augmentation sphere                          
   RDEP   =    2.381    radius for radial grids                                 
   RDEPT  =    1.930    core radius for aug-charge                              
                                                                                
   Atomic configuration                                                         
    8 entries                                                                   
     n  l   j            E        occ.                                          
     1  0  0.50     -4865.3608   2.0000                                         
     2  0  0.50      -533.1368   2.0000                                         
     2  1  1.50      -440.5031   6.0000                                         
     3  0  0.50       -59.3186   2.0000                                         
     4  0  0.50        -3.7291   1.0000                                         
     3  1  1.50       -35.7012   6.0000                                         
     3  2  2.50        -1.9157   3.0000                                         
     4  3  2.50        -1.3606   0.0000                                         
   Description                                                                  
     l       E           TYP  RCUT    TYP  RCUT                                 
     0    -59.3185931     23  1.800                                             
     0     -3.7290822     23  2.300                                             
     1    -35.7012045     23  2.300                                             
     1     -1.3605826     23  2.300                                             
     2     -1.9156920     23  2.300                                             
     2     -0.0236318     23  2.300                                             
     3     -1.3605826     23  2.300                                             
  local pseudopotential read in
  partial core-charges read in
  partial kinetic energy density read in
  atomic valenz-charges read in
  non local Contribution for L=           0  read in
    real space projection operators read in
  non local Contribution for L=           0  read in
    real space projection operators read in
  non local Contribution for L=           1  read in
    real space projection operators read in
  non local Contribution for L=           1  read in
    real space projection operators read in
  non local Contribution for L=           2  read in
    real space projection operators read in
  non local Contribution for L=           2  read in
    real space projection operators read in
    PAW grid and wavefunctions read in
 
   number of l-projection  operators is LMAX  =           6
   number of lm-projection operators is LMMAX =          18
 
 POTCAR:    PAW_PBE O 08Apr2002                   
   VRHFIN =O: s2p4                                                              
   LEXCH  = PE                                                                  
   EATOM  =   432.3788 eV,   31.7789 Ry                                         
                                                                                
   TITEL  = PAW_PBE O 08Apr2002                                                 
   LULTRA =        F    use ultrasoft PP ?                                      
   IUNSCR =        1    unscreen: 0-lin 1-nonlin 2-no                           
   RPACOR =    1.200    partial core radius                                     
   POMASS =   16.000; ZVAL   =    6.000    mass and valenz                      
   RCORE  =    1.520    outmost cutoff radius                                   
   RWIGS  =    1.550; RWIGS  =    0.820    wigner-seitz radius (au A)           
   ENMAX  =  400.000; ENMIN  =  300.000 eV                                      
   ICORE  =        2    local potential                                         
   LCOR   =        T    correct aug charges                                     
   LPAW   =        T    paw PP                                                  
   EAUG   =  605.392                                                            
   DEXC   =    0.000                                                            
   RMAX   =    1.553    core radius for proj-oper                               
   RAUG   =    1.300    factor for augmentation sphere                          
   RDEP   =    1.550    radius for radial grids                                 
   RDEPT  =    1.329    core radius for aug-charge                              
                                                                                
   Atomic configuration                                                         
    4 entries                                                                   
     n  l   j            E        occ.                                          
     1  0  0.50      -514.6923   2.0000                                         
     2  0  0.50       -23.9615   2.0000                                         
     2  1  0.50        -9.0305   4.0000                                         
     3  2  1.50        -9.5241   0.0000                                         
   Description                                                                  
     l       E           TYP  RCUT    TYP  RCUT                                 
     0    -23.9615318     23  1.200                                             
     0     -9.5240782     23  1.200                                             
     1     -9.0304911     23  1.520                                             
     1      8.1634956     23  1.520                                             
     2     -9.5240782      7  1.500                                             
  local pseudopotential read in
  partial core-charges read in
  partial kinetic energy density read in
  kinetic energy density of atom read in
  atomic valenz-charges read in
  non local Contribution for L=           0  read in
    real space projection operators read in
  non local Contribution for L=           0  read in
    real space projection operators read in
  non local Contribution for L=           1  read in
    real space projection operators read in
  non local Contribution for L=           1  read in
    real space projection operators read in
    PAW grid and wavefunctions read in
 
   number of l-projection  operators is LMAX  =           4
   number of lm-projection operators is LMMAX =           8
 

 ----------------------------------------------------------------------------- 
|                                                                             |
|  ADVICE TO THIS USER RUNNING 'VASP/VAMP'   (HEAR YOUR MASTER'S VOICE ...):  |
|                                                                             |
|      You have a (more or less) 'small supercell' and for smaller cells      |
|      it is recommended  to use the reciprocal-space projection scheme!      |
|      The real space optimization is not  efficient for small cells and it   |
|      is also less accurate ...                                              |
|      Therefore set LREAL=.FALSE. in the  INCAR file                         |
|                                                                             |
 ----------------------------------------------------------------------------- 

 Optimization of the real space projectors (new method)

 maximal supplied QI-value         = 13.42
 optimisation between [QCUT,QGAM] = [ 13.01, 26.03] = [ 47.43,189.72] Ry 
 Optimized for a Real-space Cutoff    1.54 Angstroem

   l    n(q)    QCUT    max X(q) W(low)/X(q) W(high)/X(q)  e(spline) 
   0     12    13.015    13.244    0.15E-04    0.25E-04    0.29E-06
   0     12    13.015    14.240    0.22E-04    0.36E-04    0.48E-06
   1     12    13.015     4.828    0.30E-04    0.17E-04    0.95E-07
   1     12    13.015     3.934    0.90E-04    0.75E-04    0.39E-06
   2     11    13.015    87.714    0.28E-03    0.90E-04    0.12E-05
   2     11    13.015    59.874    0.27E-03    0.87E-04    0.12E-05
 Optimization of the real space projectors (new method)

 maximal supplied QI-value         = 16.25
 optimisation between [QCUT,QGAM] = [ 13.00, 26.00] = [ 47.33,189.34] Ry 
 Optimized for a Real-space Cutoff    1.26 Angstroem

   l    n(q)    QCUT    max X(q) W(low)/X(q) W(high)/X(q)  e(spline) 
   0     10    13.001    12.277    0.19E-04    0.22E-04    0.18E-07
   0     10    13.001    11.419    0.32E-04    0.76E-05    0.49E-07
   1      9    13.001     4.010    0.11E-03    0.70E-04    0.49E-07
   1      9    13.001     6.182    0.35E-04    0.11E-03    0.95E-07
   2      9    13.001    47.177    0.13E-03    0.76E-03    0.44E-06
   2      9    13.001    42.437    0.13E-03    0.74E-03    0.43E-06
 Optimization of the real space projectors (new method)

 maximal supplied QI-value         = 24.76
 optimisation between [QCUT,QGAM] = [ 12.87, 25.99] = [ 46.40,189.20] Ry 
 Optimized for a Real-space Cutoff    1.08 Angstroem

   l    n(q)    QCUT    max X(q) W(low)/X(q) W(high)/X(q)  e(spline) 
   0      8    12.873    20.381    0.20E-03    0.13E-03    0.20E-06
   0      8    12.873    15.268    0.21E-03    0.14E-03    0.21E-06
   1      8    12.873     5.964    0.46E-03    0.39E-03    0.21E-06
   1      8    12.873     5.382    0.39E-03    0.34E-03    0.19E-06

 ----------------------------------------------------------------------------- 
|                                                                             |
|  ADVICE TO THIS USER RUNNING 'VASP/VAMP'   (HEAR YOUR MASTER'S VOICE ...):  |
|                                                                             |
|      You enforced a specific xc-type in the INCAR file,                     |
|      a different type was found on the POTCAR file                          |
|          I HOPE YOU KNOW, WHAT YOU ARE  DOING                               |
|                                                                             |
 ----------------------------------------------------------------------------- 

  PAW_PBE Ba_sv 06Sep2000               :
 energy of atom  1       EATOM= -700.8560
 kinetic energy error for atom=    0.0002 (will be added to EATOM!!)
  PAW_PBE Ti_sv 26Sep2005               :
 energy of atom  2       EATOM=-1588.0892
 kinetic energy error for atom=    0.0019 (will be added to EATOM!!)
  PAW_PBE O 08Apr2002                   :
 energy of atom  3       EATOM= -432.3788
 kinetic energy error for atom=    0.0129 (will be added to EATOM!!)
 
 
 POSCAR: Ba1 Ti1 O3                              
  positions in direct lattice
  No initial velocities read in
 exchange correlation table for  LEXCH =       14
   RHO(1)=    0.500       N(1)  =     2000
   RHO(2)=  100.500       N(2)  =     4000
 


--------------------------------------------------------------------------------------------------------


 ion  position               nearest neighbor table
   1  0.000  0.000  0.085-   3 2.70   4 2.70   4 2.70   3 2.70   5 2.79   5 2.79   5 2.79   5 2.79
                             2 3.64   2 3.64   2 3.64   2 3.64   2 3.71   2 3.71   2 3.71   2 3.71
   2  0.500  0.500  0.576-   5 1.76   4 1.96   3 1.96   3 1.96   4 1.96   1 3.64   1 3.64   1 3.64
                             1 3.64   1 3.71   1 3.71   1 3.71   1 3.71
   3  0.000  0.500  0.468-   2 1.96   2 1.96   1 2.70   1 2.70
   4  0.500  0.000  0.468-   2 1.96   2 1.96   1 2.70   1 2.70
   5  0.500  0.500  0.924-   2 1.76   1 2.79   1 2.79   1 2.79   1 2.79
 

IMPORTANT INFORMATION: All symmetrisations will be switched off!
NOSYMM: (Re-)initialisation of all symmetry stuff for point group C_1.

 
 
 KPOINTS: Default gamma                           

Automatic generation of k-mesh.
Space group operators:
 irot       det(A)        alpha          n_x          n_y          n_z        tau_x        tau_y        tau_z
    1     1.000000     0.000000     1.000000     0.000000     0.000000     0.000000     0.000000     0.000000
 
 Subroutine IBZKPT returns following result:
 ===========================================
 
 Found     34 irreducible k-points:
 
 Following reciprocal coordinates:
            Coordinates               Weight
  0.000000  0.000000  0.000000      1.000000
  0.125000 -0.000000 -0.000000      2.000000
  0.250000 -0.000000 -0.000000      2.000000
  0.375000 -0.000000 -0.000000      2.000000
  0.500000 -0.000000 -0.000000      1.000000
  0.000000  0.125000 -0.000000      2.000000
  0.125000  0.125000 -0.000000      2.000000
  0.250000  0.125000 -0.000000      2.000000
  0.375000  0.125000 -0.000000      2.000000
  0.500000  0.125000 -0.000000      2.000000
 -0.375000  0.125000 -0.000000      2.000000
 -0.250000  0.125000 -0.000000      2.000000
 -0.125000  0.125000 -0.000000      2.000000
  0.000000  0.250000 -0.000000      2.000000
  0.125000  0.250000 -0.000000      2.000000
  0.250000  0.250000 -0.000000      2.000000
  0.375000  0.250000 -0.000000      2.000000
  0.500000  0.250000 -0.000000      2.000000
 -0.375000  0.250000  0.000000      2.000000
 -0.250000  0.250000 -0.000000      2.000000
 -0.125000  0.250000 -0.000000      2.000000
 -0.000000  0.375000 -0.000000      2.000000
  0.125000  0.375000 -0.000000      2.000000
  0.250000  0.375000 -0.000000      2.000000
  0.375000  0.375000 -0.000000      2.000000
  0.500000  0.375000 -0.000000      2.000000
 -0.375000  0.375000 -0.000000      2.000000
 -0.250000  0.375000 -0.000000      2.000000
 -0.125000  0.375000 -0.000000      2.000000
  0.000000  0.500000 -0.000000      1.000000
  0.125000  0.500000 -0.000000      2.000000
  0.250000  0.500000 -0.000000      2.000000
  0.375000  0.500000 -0.000000      2.000000
  0.500000  0.500000 -0.000000      1.000000
 
 Following cartesian coordinates:
            Coordinates               Weight
  0.000000  0.000000  0.000000      1.000000
  0.033157 -0.000000 -0.000000      2.000000
  0.066314 -0.000000 -0.000000      2.000000
  0.099470 -0.000000 -0.000000      2.000000
  0.132627 -0.000000 -0.000000      1.000000
 -0.000000  0.033157 -0.000000      2.000000
  0.033157  0.033157 -0.000000      2.000000
  0.066314  0.033157 -0.000000      2.000000
  0.099470  0.033157 -0.000000      2.000000
  0.132627  0.033157 -0.000000      2.000000
 -0.099470  0.033157  0.000000      2.000000
 -0.066314  0.033157  0.000000      2.000000
 -0.033157  0.033157 -0.000000      2.000000
 -0.000000  0.066314 -0.000000      2.000000
  0.033157  0.066314 -0.000000      2.000000
  0.066314  0.066314 -0.000000      2.000000
  0.099470  0.066314 -0.000000      2.000000
  0.132627  0.066314 -0.000000      2.000000
 -0.099470  0.066314  0.000000      2.000000
 -0.066314  0.066314 -0.000000      2.000000
 -0.033157  0.066314 -0.000000      2.000000
 -0.000000  0.099470 -0.000000      2.000000
  0.033157  0.099470 -0.000000      2.000000
  0.066314  0.099470 -0.000000      2.000000
  0.099470  0.099470 -0.000000      2.000000
  0.132627  0.099470 -0.000000      2.000000
 -0.099470  0.099470  0.000000      2.000000
 -0.066314  0.099470 -0.000000      2.000000
 -0.033157  0.099470 -0.000000      2.000000
 -0.000000  0.132627 -0.000000      1.000000
  0.033157  0.132627 -0.000000      2.000000
  0.066314  0.132627 -0.000000      2.000000
  0.099470  0.132627 -0.000000      2.000000
  0.132627  0.132627 -0.000000      1.000000
 
 TETIRR: Found    192 inequivalent tetrahedra from      384

 ----------------------------------------------------------------------------- 
|                                                                             |
|           W    W    AA    RRRRR   N    N  II  N    N   GGGG   !!!           |
|           W    W   A  A   R    R  NN   N  II  NN   N  G    G  !!!           |
|           W    W  A    A  R    R  N N  N  II  N N  N  G       !!!           |
|           W WW W  AAAAAA  RRRRR   N  N N  II  N  N N  G  GGG   !            |
|           WW  WW  A    A  R   R   N   NN  II  N   NN  G    G                |
|           W    W  A    A  R    R  N    N  II  N    N   GGGG   !!!           |
|                                                                             |
|      The number of bands has been changed from the values supplied          |
|      in the INCAR file. This is a result of running the parallel version.   |
|      The orbitals not found in the WAVECAR file will be initialized with    |
|      random numbers, which is usually adequate. For correlated              |
|      calculations, however, you should redo the groundstate calculation.    |
|      I found NBANDS    =       27  now  NBANDS  =      28                   |
|                                                                             |
 ----------------------------------------------------------------------------- 



--------------------------------------------------------------------------------------------------------




 Dimension of arrays:
   k-points           NKPTS =     34   k-points in BZ     NKDIM =     34   number of bands    NBANDS=     28
   number of dos      NEDOS =   3208   number of ions     NIONS =      5
   non local maximal  LDIM  =      6   non local SUM 2l+1 LMDIM =     18
   total plane-waves  NPLWV =  18432
   max r-space proj   IRMAX =   4006   max aug-charges    IRDMAX=  16258
   dimension x,y,z NGX =    24 NGY =   24 NGZ =   32
   dimension x,y,z NGXF=    48 NGYF=   48 NGZF=   64
   support grid    NGXF=    48 NGYF=   48 NGZF=   64
   ions per type =               1   1   3
   NGX,Y,Z   is equivalent  to a cutoff of  10.58, 10.58, 10.52 a.u.
   NGXF,Y,Z  is equivalent  to a cutoff of  21.17, 21.17, 21.05 a.u.

 SYSTEM =  unknown system                          
 POSCAR =  Ba1 Ti1 O3                              

 Startparameter for this run:
   NWRITE =      2    write-flag & timer
   PREC   = normal    normal or accurate (medium, high low for compatibility)
   ISTART =      0    job   : 0-new  1-cont  2-samecut
   ICHARG =     11    charge: 1-file 2-atom 10-const
   ISPIN  =      1    spin polarized calculation?
   LNONCOLLINEAR =      F non collinear calculations
   LSORBIT =      F    spin-orbit coupling
   INIWAV =      1    electr: 0-lowe 1-rand  2-diag
   LASPH  =      F    aspherical Exc in radial PAW
   METAGGA=      F    non-selfconsistent MetaGGA calc.

 Electronic Relaxation 1
   ENCUT  =  650.0 eV  47.77 Ry    6.91 a.u.   7.84  7.84 10.51*2*pi/ulx,y,z
   ENINI  =  650.0     initial cutoff
   ENAUG  =  605.4 eV  augmentation charge cutoff
   NELM   =    100;   NELMIN=  2; NELMDL= -5     # of ELM steps 
   EDIFF  = 0.1E-04   stopping-criterion for ELM
   LREAL  =      T    real-space projection
   NLSPLINE    = F    spline interpolate recip. space projectors
   LCOMPAT=      F    compatible to vasp.4.4
   GGA_COMPAT  = T    GGA compatible to vasp.4.4-vasp.4.6
   LMAXPAW     = -100 max onsite density
   LMAXMIX     =    2 max onsite mixed and CHGCAR
   VOSKOWN=      0    Vosko Wilk Nusair interpolation
   ROPT   =   -0.00050  -0.00050  -0.00050
 Ionic relaxation
   EDIFFG = -.1E-01   stopping-criterion for IOM
   NSW    =      0    number of steps for IOM
   NBLOCK =      1;   KBLOCK =      1    inner block; outer block 
   IBRION =     -1    ionic relax: 0-MD 1-quasi-New 2-CG
   NFREE  =      0    steps in history (QN), initial steepest desc. (CG)
   ISIF   =      3    stress and relaxation
   IWAVPR =     10    prediction:  0-non 1-charg 2-wave 3-comb
   ISYM   =      0    0-nonsym 1-usesym 2-fastsym
   LCORR  =      T    Harris-Foulkes like correction to forces

   POTIM  = 0.5000    time-step for ionic-motion
   TEIN   =    0.0    initial temperature
   TEBEG  =    0.0;   TEEND  =   0.0 temperature during run
   SMASS  =  -3.00    Nose mass-parameter (am)
   estimated Nose-frequenzy (Omega)   =  0.10E-29 period in steps =****** mass=  -0.325E-27a.u.
   SCALEE = 1.0000    scale energy and forces
   NPACO  =    256;   APACO  = 16.0  distance and # of slots for P.C.
   PSTRESS=    0.0 pullay stress

  Mass of Ions in am
   POMASS = 137.33 47.88 16.00
  Ionic Valenz
   ZVAL   =  10.00 12.00  6.00
  Atomic Wigner-Seitz radii
   RWIGS  =  -1.00 -1.00 -1.00
  virtual crystal weights 
   VCA    =   1.00  1.00  1.00
   NELECT =      40.0000    total number of electrons
   NUPDOWN=      -1.0000    fix difference up-down

 DOS related values:
   EMIN   =  10.00;   EMAX   =-10.00  energy-range for DOS
   EFERMI =   0.00
   ISMEAR =    -5;   SIGMA  =   0.20  broadening in eV -4-tet -1-fermi 0-gaus

 Electronic relaxation 2 (details)
   IALGO  =     38    algorithm
   LDIAG  =      T    sub-space diagonalisation (order eigenvalues)
   LSUBROT=      F    optimize rotation matrix (better conditioning)
   TURBO    =      0    0=normal 1=particle mesh
   IRESTART =      0    0=no restart 2=restart with 2 vectors
   NREBOOT  =      0    no. of reboots
   NMIN     =      0    reboot dimension
   EREF     =   0.00    reference energy to select bands
   IMIX   =      4    mixing-type and parameters
     AMIX     =   0.40;   BMIX     =  1.00
     AMIX_MAG =   1.60;   BMIX_MAG =  1.00
     AMIN     =   0.10
     WC   =   100.;   INIMIX=   1;  MIXPRE=   1;  MAXMIX= -45

 Intra band minimization:
   WEIMIN = 0.0000     energy-eigenvalue tresh-hold
   EBREAK =  0.89E-07  absolut break condition
   DEPER  =   0.30     relativ break condition  

   TIME   =   0.40     timestep for ELM

  volume/ion in A,a.u.               =      14.37        96.96
  Fermi-wavevector in a.u.,A,eV,Ry     =   1.346800  2.545082 24.679185  1.813869
  Thomas-Fermi vector in A             =   2.474602
 
 Write flags
   LWAVE        =      T    write WAVECAR
   LDOWNSAMPLE  =      F    k-point downsampling of WAVECAR
   LCHARG       =      F    write CHGCAR
   LVTOT        =      T    write LOCPOT, total local potential
   LVHAR        =      F    write LOCPOT, Hartree potential only
   LELF         =      F    write electronic localiz. function (ELF)
   LORBIT       =     11    0 simple, 1 ext, 2 COOP (PROOUT), +10 PAW based schemes


 Dipole corrections
   LMONO  =      F    monopole corrections only (constant potential shift)
   LDIPOL =      F    correct potential (dipole corrections)
   IDIPOL =      0    1-x, 2-y, 3-z, 4-all directions 
   EPSILON=  1.0000000 bulk dielectric constant

 Exchange correlation treatment:
   GGA     =    PS    GGA type
   LEXCH   =    14    internal setting for exchange type
   VOSKOWN=      0    Vosko Wilk Nusair interpolation
   LHFCALC =     F    Hartree Fock is set to
   LHFONE  =     F    Hartree Fock one center treatment
   AEXX    =    0.0000 exact exchange contribution

 Linear response parameters
   LEPSILON=     F    determine dielectric tensor
   LRPA    =     F    only Hartree local field effects (RPA)
   LNABLA  =     F    use nabla operator in PAW spheres
   LVEL    =     F    velocity operator in full k-point grid
   LINTERFAST=   F  fast interpolation
   KINTER  =     0    interpolate to denser k-point grid
   CSHIFT  =0.1000    complex shift for real part using Kramers Kronig
   OMEGAMAX=  -1.0    maximum frequency
   DEG_THRESHOLD= 0.2000000E-02 threshold for treating states as degnerate
   RTIME   =   -0.100 relaxation time in fs
  (WPLASMAI=    0.000 imaginary part of plasma frequency in eV, 0.658/RTIME)
   DFIELD  = 0.0000000 0.0000000 0.0000000 field for delta impulse in time
 
 Orbital magnetization related:
   ORBITALMAG=     F  switch on orbital magnetization
   LCHIMAG   =     F  perturbation theory with respect to B field
   DQ        =  0.001000  dq finite difference perturbation B field
   LLRAUG    =     F  two centre corrections for induced B field



--------------------------------------------------------------------------------------------------------


 Static calculation
 charge density and potential remain constant during run
 non-spin polarized calculation
 Variant of blocked Davidson
 Davidson routine will perform the subspace rotation
 perform sub-space diagonalisation
    after iterative eigenvector-optimisation
 no mixing
 using additional bands            8
 real space projection scheme for non local part
 use partial core corrections
 calculate Harris-corrections to forces 
   (improved forces if not selfconsistent)
 use gradient corrections 
 WARNING: stress and forces are not correct
  (second derivative of E(xc) not defined)
 use of overlap-Matrix (Vanderbilt PP)
 Fermi weights with tetrahedron method with Bloechl corrections


--------------------------------------------------------------------------------------------------------


  energy-cutoff  :      650.00
  volume of cell :       71.84
      direct lattice vectors                 reciprocal lattice vectors
     3.769967673  0.000000000 -0.000000000     0.265254264 -0.000000000 -0.000000000
     0.000000000  3.769967673 -0.000000000    -0.000000000  0.265254264 -0.000000000
     0.000000000  0.000000000  5.054758001     0.000000000  0.000000000  0.197833408

  length of vectors
     3.769967673  3.769967673  5.054758001     0.265254264  0.265254264  0.197833408


 
 k-points in units of 2pi/SCALE and weight: Default gamma                           
   0.00000000  0.00000000  0.00000000       0.016
   0.03315678 -0.00000000 -0.00000000       0.031
   0.06631357 -0.00000000 -0.00000000       0.031
   0.09947035 -0.00000000 -0.00000000       0.031
   0.13262713 -0.00000000 -0.00000000       0.016
  -0.00000000  0.03315678 -0.00000000       0.031
   0.03315678  0.03315678 -0.00000000       0.031
   0.06631357  0.03315678 -0.00000000       0.031
   0.09947035  0.03315678 -0.00000000       0.031
   0.13262713  0.03315678 -0.00000000       0.031
  -0.09947035  0.03315678  0.00000000       0.031
  -0.06631357  0.03315678  0.00000000       0.031
  -0.03315678  0.03315678 -0.00000000       0.031
  -0.00000000  0.06631357 -0.00000000       0.031
   0.03315678  0.06631357 -0.00000000       0.031
   0.06631357  0.06631357 -0.00000000       0.031
   0.09947035  0.06631357 -0.00000000       0.031
   0.13262713  0.06631357 -0.00000000       0.031
  -0.09947035  0.06631357  0.00000000       0.031
  -0.06631357  0.06631357 -0.00000000       0.031
  -0.03315678  0.06631357 -0.00000000       0.031
  -0.00000000  0.09947035 -0.00000000       0.031
   0.03315678  0.09947035 -0.00000000       0.031
   0.06631357  0.09947035 -0.00000000       0.031
   0.09947035  0.09947035 -0.00000000       0.031
   0.13262713  0.09947035 -0.00000000       0.031
  -0.09947035  0.09947035 -0.00000000       0.031
  -0.06631357  0.09947035 -0.00000000       0.031
  -0.03315678  0.09947035 -0.00000000       0.031
  -0.00000000  0.13262713 -0.00000000       0.016
   0.03315678  0.13262713 -0.00000000       0.031
   0.06631357  0.13262713 -0.00000000       0.031
   0.09947035  0.13262713 -0.00000000       0.031
   0.13262713  0.13262713 -0.00000000       0.016
 
 k-points in reciprocal lattice and weights: Default gamma                           
   0.00000000  0.00000000  0.00000000       0.016
   0.12500000 -0.00000000 -0.00000000       0.031
   0.25000000 -0.00000000 -0.00000000       0.031
   0.37500000 -0.00000000 -0.00000000       0.031
   0.50000000 -0.00000000 -0.00000000       0.016
   0.00000000  0.12500000 -0.00000000       0.031
   0.12500000  0.12500000 -0.00000000       0.031
   0.25000000  0.12500000 -0.00000000       0.031
   0.37500000  0.12500000 -0.00000000       0.031
   0.50000000  0.12500000 -0.00000000       0.031
  -0.37500000  0.12500000 -0.00000000       0.031
  -0.25000000  0.12500000 -0.00000000       0.031
  -0.12500000  0.12500000 -0.00000000       0.031
   0.00000000  0.25000000 -0.00000000       0.031
   0.12500000  0.25000000 -0.00000000       0.031
   0.25000000  0.25000000 -0.00000000       0.031
   0.37500000  0.25000000 -0.00000000       0.031
   0.50000000  0.25000000 -0.00000000       0.031
  -0.37500000  0.25000000  0.00000000       0.031
  -0.25000000  0.25000000 -0.00000000       0.031
  -0.12500000  0.25000000 -0.00000000       0.031
  -0.00000000  0.37500000 -0.00000000       0.031
   0.12500000  0.37500000 -0.00000000       0.031
   0.25000000  0.37500000 -0.00000000       0.031
   0.37500000  0.37500000 -0.00000000       0.031
   0.50000000  0.37500000 -0.00000000       0.031
  -0.37500000  0.37500000 -0.00000000       0.031
  -0.25000000  0.37500000 -0.00000000       0.031
  -0.12500000  0.37500000 -0.00000000       0.031
   0.00000000  0.50000000 -0.00000000       0.016
   0.12500000  0.50000000 -0.00000000       0.031
   0.25000000  0.50000000 -0.00000000       0.031
   0.37500000  0.50000000 -0.00000000       0.031
   0.50000000  0.50000000 -0.00000000       0.016
 
 position of ions in fractional coordinates (direct lattice) 
   0.00000000  0.00000000  0.08538490
   0.50000000  0.50000000  0.57601335
   0.00000000  0.50000000  0.46750111
   0.50000000  0.00000000  0.46750111
   0.50000000  0.50000000  0.92359955
 
 position of ions in cartesian coordinates  (Angst):
   0.00000000  0.00000000  0.43159999
   1.88498384  1.88498384  2.91160807
   0.00000000  1.88498384  2.36310495
   1.88498384  0.00000000  2.36310495
   1.88498384  1.88498384  4.66857219
 


--------------------------------------------------------------------------------------------------------


 k-point  1 :   0.0000 0.0000 0.0000  plane waves:    2709
 k-point  2 :   0.1250-0.0000-0.0000  plane waves:    2699
 k-point  3 :   0.2500-0.0000-0.0000  plane waves:    2686
 k-point  4 :   0.3750-0.0000-0.0000  plane waves:    2702
 k-point  5 :   0.5000-0.0000-0.0000  plane waves:    2720
 k-point  6 :   0.0000 0.1250-0.0000  plane waves:    2699
 k-point  7 :   0.1250 0.1250-0.0000  plane waves:    2709
 k-point  8 :   0.2500 0.1250-0.0000  plane waves:    2697
 k-point  9 :   0.3750 0.1250-0.0000  plane waves:    2702
 k-point 10 :   0.5000 0.1250-0.0000  plane waves:    2706
 k-point 11 :  -0.3750 0.1250-0.0000  plane waves:    2702
 k-point 12 :  -0.2500 0.1250-0.0000  plane waves:    2697
 k-point 13 :  -0.1250 0.1250-0.0000  plane waves:    2709
 k-point 14 :   0.0000 0.2500-0.0000  plane waves:    2686
 k-point 15 :   0.1250 0.2500-0.0000  plane waves:    2697
 k-point 16 :   0.2500 0.2500-0.0000  plane waves:    2717
 k-point 17 :   0.3750 0.2500-0.0000  plane waves:    2722
 k-point 18 :   0.5000 0.2500-0.0000  plane waves:    2712
 k-point 19 :  -0.3750 0.2500 0.0000  plane waves:    2722
 k-point 20 :  -0.2500 0.2500-0.0000  plane waves:    2717
 k-point 21 :  -0.1250 0.2500-0.0000  plane waves:    2697
 k-point 22 :  -0.0000 0.3750-0.0000  plane waves:    2702
 k-point 23 :   0.1250 0.3750-0.0000  plane waves:    2702
 k-point 24 :   0.2500 0.3750-0.0000  plane waves:    2722
 k-point 25 :   0.3750 0.3750-0.0000  plane waves:    2713
 k-point 26 :   0.5000 0.3750-0.0000  plane waves:    2712
 k-point 27 :  -0.3750 0.3750-0.0000  plane waves:    2713
 k-point 28 :  -0.2500 0.3750-0.0000  plane waves:    2722
 k-point 29 :  -0.1250 0.3750-0.0000  plane waves:    2702
 k-point 30 :   0.0000 0.5000-0.0000  plane waves:    2720
 k-point 31 :   0.1250 0.5000-0.0000  plane waves:    2706
 k-point 32 :   0.2500 0.5000-0.0000  plane waves:    2712
 k-point 33 :   0.3750 0.5000-0.0000  plane waves:    2712
 k-point 34 :   0.5000 0.5000-0.0000  plane waves:    2688

 maximum and minimum number of plane-waves per node :       350      313

 maximum number of plane-waves:      2722
 maximum index in each direction: 
   IXMAX=    8   IYMAX=    7   IZMAX=   10
   IXMIN=   -8   IYMIN=   -8   IZMIN=  -10


 real space projection operators:
  total allocation   :       1080.05 KBytes
  max/ min on nodes  :        142.61        127.62


 parallel 3D FFT for wavefunctions:
    minimum data exchange during FFTs selected (reduces bandwidth)
 parallel 3D FFT for charge:
    minimum data exchange during FFTs selected (reduces bandwidth)


 total amount of memory used by VASP MPI-rank0    32713. kBytes
=======================================================================

   base      :      30000. kBytes
   nonlr-proj:        513. kBytes
   fftplans  :        274. kBytes
   grid      :        495. kBytes
   one-center:         15. kBytes
   wavefun   :       1416. kBytes
 
     INWAV:  cpu time    0.0000: real time    0.0000
 initial charge density was supplied:
 number of electron      40.0000066 magnetization 
 keeping initial charge density in first step


--------------------------------------------------------------------------------------------------------


 Maximum index for non-local projection operator          487
 Maximum index for augmentation-charges          754 (set IRDMAX)


--------------------------------------------------------------------------------------------------------


 First call to EWALD:  gamma=   0.426
 Maximum number of real-space cells 3x 3x 2
 Maximum number of reciprocal cells 3x 3x 3

    FEWALD:  cpu time    0.0067: real time    0.0067


--------------------------------------- Iteration      1(   1)  ---------------------------------------


    POTLOK:  cpu time    0.0191: real time    0.0583
    SETDIJ:  cpu time    0.0133: real time    0.0133
     EDDAV:  cpu time    0.0762: real time    0.0763
 BZINTS: Fermi energy: 19.183596; 40.000000 electrons
         Band energy:  48.856368;  BLOECHL correction: -0.180676
       DOS:  cpu time    0.0104: real time    0.0104
    --------------------------------------------
      LOOP:  cpu time    0.1189: real time    0.1582

 eigenvalue-minimisations  :  1904
 total energy-change (2. order) : 0.4450452E+03  (-0.2343321E+04)
 number of electron      40.0000066 magnetization 
 augmentation part       40.0000066 magnetization 

 Free energy of the ion-electron system (eV)
  ---------------------------------------------------
  alpha Z        PSCENC =       230.92623677
  Ewald energy   TEWEN  =     -2624.42533734
  -Hartree energ DENC   =      -985.10156556
  -exchange      EXHF   =         0.00000000
  -V(xc)+E(xc)   XCENC  =       174.59210024
  PAW double counting   =      4276.83478321    -4255.46156867
  entropy T*S    EENTRO =         0.00000000
  eigenvalues    EBANDS =        48.85636801
  atomic energy  EATOM  =      3578.82413528
  Solvation  Ediel_sol  =         0.00000000
  ---------------------------------------------------
  free energy    TOTEN  =       445.04515195 eV

  energy without entropy =      445.04515195  energy(sigma->0) =      445.04515195


--------------------------------------------------------------------------------------------------------




--------------------------------------- Iteration      1(   2)  ---------------------------------------


     EDDAV:  cpu time    0.0795: real time    0.0805
 BZINTS: Fermi energy:  6.892474; 40.000000 electrons
         Band energy:-379.965724;  BLOECHL correction: -0.037781
       DOS:  cpu time    0.0096: real time    0.0096
    --------------------------------------------
      LOOP:  cpu time    0.0891: real time    0.0901

 eigenvalue-minimisations  :  1996
 total energy-change (2. order) :-0.4288221E+03  (-0.4091728E+03)
 number of electron      40.0000066 magnetization 
 augmentation part       40.0000066 magnetization 

 Free energy of the ion-electron system (eV)
  ---------------------------------------------------
  alpha Z        PSCENC =       230.92623677
  Ewald energy   TEWEN  =     -2624.42533734
  -Hartree energ DENC   =      -985.10156556
  -exchange      EXHF   =         0.00000000
  -V(xc)+E(xc)   XCENC  =       174.59210024
  PAW double counting   =      4276.83478321    -4255.46156867
  entropy T*S    EENTRO =         0.00000000
  eigenvalues    EBANDS =      -379.96572414
  atomic energy  EATOM  =      3578.82413528
  Solvation  Ediel_sol  =         0.00000000
  ---------------------------------------------------
  free energy    TOTEN  =        16.22305980 eV

  energy without entropy =       16.22305980  energy(sigma->0) =       16.22305980


--------------------------------------------------------------------------------------------------------




--------------------------------------- Iteration      1(   3)  ---------------------------------------


     EDDAV:  cpu time    0.0885: real time    0.0885
 BZINTS: Fermi energy:  3.951311; 40.000000 electrons
         Band energy:-434.828705;  BLOECHL correction:  0.000000
       DOS:  cpu time    0.0091: real time    0.0091
    --------------------------------------------
      LOOP:  cpu time    0.0976: real time    0.0976

 eigenvalue-minimisations  :  2848
 total energy-change (2. order) :-0.5486298E+02  (-0.5326300E+02)
 number of electron      40.0000066 magnetization 
 augmentation part       40.0000066 magnetization 

 Free energy of the ion-electron system (eV)
  ---------------------------------------------------
  alpha Z        PSCENC =       230.92623677
  Ewald energy   TEWEN  =     -2624.42533734
  -Hartree energ DENC   =      -985.10156556
  -exchange      EXHF   =         0.00000000
  -V(xc)+E(xc)   XCENC  =       174.59210024
  PAW double counting   =      4276.83478321    -4255.46156867
  entropy T*S    EENTRO =         0.00000000
  eigenvalues    EBANDS =      -434.82870478
  atomic energy  EATOM  =      3578.82413528
  Solvation  Ediel_sol  =         0.00000000
  ---------------------------------------------------
  free energy    TOTEN  =       -38.63992084 eV

  energy without entropy =      -38.63992084  energy(sigma->0) =      -38.63992084


--------------------------------------------------------------------------------------------------------




--------------------------------------- Iteration      1(   4)  ---------------------------------------


     EDDAV:  cpu time    0.0803: real time    0.0803
 BZINTS: Fermi energy:  3.547555; 40.000000 electrons
         Band energy:-437.708824;  BLOECHL correction:  0.000000
       DOS:  cpu time    0.0065: real time    0.0065
    --------------------------------------------
      LOOP:  cpu time    0.0869: real time    0.0869

 eigenvalue-minimisations  :  2632
 total energy-change (2. order) :-0.2880119E+01  (-0.2869144E+01)
 number of electron      40.0000066 magnetization 
 augmentation part       40.0000066 magnetization 

 Free energy of the ion-electron system (eV)
  ---------------------------------------------------
  alpha Z        PSCENC =       230.92623677
  Ewald energy   TEWEN  =     -2624.42533734
  -Hartree energ DENC   =      -985.10156556
  -exchange      EXHF   =         0.00000000
  -V(xc)+E(xc)   XCENC  =       174.59210024
  PAW double counting   =      4276.83478321    -4255.46156867
  entropy T*S    EENTRO =         0.00000000
  eigenvalues    EBANDS =      -437.70882394
  atomic energy  EATOM  =      3578.82413528
  Solvation  Ediel_sol  =         0.00000000
  ---------------------------------------------------
  free energy    TOTEN  =       -41.52004000 eV

  energy without entropy =      -41.52004000  energy(sigma->0) =      -41.52004000


--------------------------------------------------------------------------------------------------------




--------------------------------------- Iteration      1(   5)  ---------------------------------------


     EDDAV:  cpu time    0.0805: real time    0.0805
 BZINTS: Fermi energy:  3.536558; 40.000000 electrons
         Band energy:-437.806214;  BLOECHL correction:  0.000000
       DOS:  cpu time    0.0083: real time    0.0083
    --------------------------------------------
      LOOP:  cpu time    0.0888: real time    0.0888

 eigenvalue-minimisations  :  2480
 total energy-change (2. order) :-0.9738998E-01  (-0.9735981E-01)
 number of electron      40.0000066 magnetization 
 augmentation part       40.0000066 magnetization 

 Free energy of the ion-electron system (eV)
  ---------------------------------------------------
  alpha Z        PSCENC =       230.92623677
  Ewald energy   TEWEN  =     -2624.42533734
  -Hartree energ DENC   =      -985.10156556
  -exchange      EXHF   =         0.00000000
  -V(xc)+E(xc)   XCENC  =       174.59210024
  PAW double counting   =      4276.83478321    -4255.46156867
  entropy T*S    EENTRO =         0.00000000
  eigenvalues    EBANDS =      -437.80621392
  atomic energy  EATOM  =      3578.82413528
  Solvation  Ediel_sol  =         0.00000000
  ---------------------------------------------------
  free energy    TOTEN  =       -41.61742998 eV

  energy without entropy =      -41.61742998  energy(sigma->0) =      -41.61742998


--------------------------------------------------------------------------------------------------------




--------------------------------------- Iteration      1(   6)  ---------------------------------------


     EDDAV:  cpu time    0.0829: real time    0.0829
 BZINTS: Fermi energy:  3.536617; 40.000000 electrons
         Band energy:-437.807548;  BLOECHL correction:  0.000000
       DOS:  cpu time    0.0072: real time    0.0072
    --------------------------------------------
      LOOP:  cpu time    0.0901: real time    0.0901

 eigenvalue-minimisations  :  2664
 total energy-change (2. order) :-0.1333830E-02  (-0.1333661E-02)
 number of electron      40.0000066 magnetization 
 augmentation part       40.0000066 magnetization 

 Free energy of the ion-electron system (eV)
  ---------------------------------------------------
  alpha Z        PSCENC =       230.92623677
  Ewald energy   TEWEN  =     -2624.42533734
  -Hartree energ DENC   =      -985.10156556
  -exchange      EXHF   =         0.00000000
  -V(xc)+E(xc)   XCENC  =       174.59210024
  PAW double counting   =      4276.83478321    -4255.46156867
  entropy T*S    EENTRO =         0.00000000
  eigenvalues    EBANDS =      -437.80754775
  atomic energy  EATOM  =      3578.82413528
  Solvation  Ediel_sol  =         0.00000000
  ---------------------------------------------------
  free energy    TOTEN  =       -41.61876381 eV

  energy without entropy =      -41.61876381  energy(sigma->0) =      -41.61876381


--------------------------------------------------------------------------------------------------------




--------------------------------------- Iteration      1(   7)  ---------------------------------------


     EDDAV:  cpu time    0.0795: real time    0.0796
 BZINTS: Fermi energy:  3.549875; 40.000000 electrons
         Band energy:-437.807563;  BLOECHL correction:  0.000000
       DOS:  cpu time    0.0075: real time    0.0075
    --------------------------------------------
      LOOP:  cpu time    0.0870: real time    0.0870

 eigenvalue-minimisations  :  2492
 total energy-change (2. order) :-0.1527587E-04  (-0.1527510E-04)
 number of electron      40.0000066 magnetization 
 augmentation part       40.0000066 magnetization 

 Free energy of the ion-electron system (eV)
  ---------------------------------------------------
  alpha Z        PSCENC =       230.92623677
  Ewald energy   TEWEN  =     -2624.42533734
  -Hartree energ DENC   =      -985.10156556
  -exchange      EXHF   =         0.00000000
  -V(xc)+E(xc)   XCENC  =       174.59210024
  PAW double counting   =      4276.83478321    -4255.46156867
  entropy T*S    EENTRO =         0.00000000
  eigenvalues    EBANDS =      -437.80756303
  atomic energy  EATOM  =      3578.82413528
  Solvation  Ediel_sol  =         0.00000000
  ---------------------------------------------------
  free energy    TOTEN  =       -41.61877909 eV

  energy without entropy =      -41.61877909  energy(sigma->0) =      -41.61877909


--------------------------------------------------------------------------------------------------------




--------------------------------------- Iteration      1(   8)  ---------------------------------------


     EDDAV:  cpu time    0.0595: real time    0.0595
 BZINTS: Fermi energy:  3.544527; 40.000000 electrons
         Band energy:-437.807563;  BLOECHL correction:  0.000000
       DOS:  cpu time    0.0080: real time    0.0080
    --------------------------------------------
      LOOP:  cpu time    0.0675: real time    0.0675

 eigenvalue-minimisations  :  1580
 total energy-change (2. order) :-0.2298275E-06  (-0.2298838E-06)
 number of electron      40.0000066 magnetization 
 augmentation part       40.0000066 magnetization 

 Free energy of the ion-electron system (eV)
  ---------------------------------------------------
  alpha Z        PSCENC =       230.92623677
  Ewald energy   TEWEN  =     -2624.42533734
  -Hartree energ DENC   =      -985.10156556
  -exchange      EXHF   =         0.00000000
  -V(xc)+E(xc)   XCENC  =       174.59210024
  PAW double counting   =      4276.83478321    -4255.46156867
  entropy T*S    EENTRO =         0.00000000
  eigenvalues    EBANDS =      -437.80756326
  atomic energy  EATOM  =      3578.82413528
  Solvation  Ediel_sol  =         0.00000000
  ---------------------------------------------------
  free energy    TOTEN  =       -41.61877932 eV

  energy without entropy =      -41.61877932  energy(sigma->0) =      -41.61877932


--------------------------------------------------------------------------------------------------------




 average (electrostatic) potential at core
  the test charge radii are     1.2192  1.0397  0.7215
  (the norm of the test charge is              1.0000)
       1 -34.0543       2 -76.9947       3 -70.5278       4 -70.5278       5 -70.6988
 
 
 
 E-fermi :   3.5445     XC(G=0): -10.7761     alpha+bet :-12.9783


 k-point     1 :       0.0000    0.0000    0.0000
  band No.  band energies     occupation 
      1     -52.9429      2.00000
      2     -29.5174      2.00000
      3     -29.2653      2.00000
      4     -29.2653      2.00000
      5     -22.3201      2.00000
      6     -13.9701      2.00000
      7     -13.2511      2.00000
      8     -13.0073      2.00000
      9      -7.3286      2.00000
     10      -7.1885      2.00000
     11      -7.1885      2.00000
     12      -0.2633      2.00000
     13      -0.2633      2.00000
     14       0.2770      2.00000
     15       0.6530      2.00000
     16       1.0282      2.00000
     17       1.2701      2.00000
     18       1.2701      2.00000
     19       2.5748      2.00000
     20       2.5748      2.00000
     21       5.4401      0.00000
     22       6.7939      0.00000
     23       7.5109      0.00000
     24       7.5109      0.00000
     25       7.9559      0.00000
     26       8.2437      0.00000
     27       8.5535      0.00000
     28       9.4502      0.00000

 k-point     2 :       0.1250   -0.0000   -0.0000
  band No.  band energies     occupation 
      1     -52.9425      2.00000
      2     -29.5166      2.00000
      3     -29.2779      2.00000
      4     -29.2648      2.00000
      5     -22.2977      2.00000
      6     -13.9229      2.00000
      7     -13.2748      2.00000
      8     -13.0086      2.00000
      9      -7.3675      2.00000
     10      -7.2094      2.00000
     11      -7.1583      2.00000
     12      -0.3926      2.00000
     13      -0.2157      2.00000
     14       0.3047      2.00000
     15       0.6427      2.00000
     16       1.0552      2.00000
     17       1.1802      2.00000
     18       1.1941      2.00000
     19       2.3206      2.00000
     20       2.4592      2.00000
     21       5.6906      0.00000
     22       6.8899      0.00000
     23       7.3063      0.00000
     24       7.4901      0.00000
     25       8.0227      0.00000
     26       8.5200      0.00000
     27       8.8382      0.00000
     28       9.4414      0.00000

 k-point     3 :       0.2500   -0.0000   -0.0000
  band No.  band energies     occupation 
      1     -52.9417      2.00000
      2     -29.5146      2.00000
      3     -29.3085      2.00000
      4     -29.2636      2.00000
      5     -22.2427      2.00000
      6     -13.8412      2.00000
      7     -13.3098      2.00000
      8     -13.0012      2.00000
      9      -7.4438      2.00000
     10      -7.2632      2.00000
     11      -7.0836      2.00000
     12      -0.5942      2.00000
     13      -0.0784      2.00000
     14       0.3607      2.00000
     15       0.6084      2.00000
     16       0.7379      2.00000
     17       0.9628      2.00000
     18       1.2774      2.00000
     19       1.7937      2.00000
     20       2.1506      2.00000
     21       6.1793      0.00000
     22       6.5115      0.00000
     23       7.4513      0.00000
     24       7.9082      0.00000
     25       8.0674      0.00000
     26       8.9955      0.00000
     27       9.3619      0.00000
     28       9.6070      0.00000

 k-point     4 :       0.3750   -0.0000   -0.0000
  band No.  band energies     occupation 
      1     -52.9408      2.00000
      2     -29.5123      2.00000
      3     -29.3389      2.00000
      4     -29.2624      2.00000
      5     -22.1863      2.00000
      6     -13.8399      2.00000
      7     -13.2555      2.00000
      8     -13.0025      2.00000
      9      -7.4893      2.00000
     10      -7.3295      2.00000
     11      -7.0058      2.00000
     12      -0.7005      2.00000
     13       0.1184      2.00000
     14       0.2948      2.00000
     15       0.4671      2.00000
     16       0.6935      2.00000
     17       0.7539      2.00000
     18       1.1968      2.00000
     19       1.2834      2.00000
     20       1.7766      2.00000
     21       6.5023      0.00000
     22       6.5743      0.00000
     23       7.4215      0.00000
     24       7.5622      0.00000
     25       8.7905      0.00000
     26       9.1759      0.00000
     27       9.8925      0.00000
     28      10.1939      0.00000

 k-point     5 :       0.5000   -0.0000   -0.0000
  band No.  band energies     occupation 
      1     -52.9404      2.00000
      2     -29.5113      2.00000
      3     -29.3516      2.00000
      4     -29.2619      2.00000
      5     -22.1626      2.00000
      6     -13.8645      2.00000
      7     -13.1912      2.00000
      8     -13.0194      2.00000
      9      -7.4945      2.00000
     10      -7.3658      2.00000
     11      -6.9726      2.00000
     12      -0.7189      2.00000
     13       0.1492      2.00000
     14       0.2399      2.00000
     15       0.4910      2.00000
     16       0.6934      2.00000
     17       0.7779      2.00000
     18       1.0217      2.00000
     19       1.0703      2.00000
     20       1.5971      2.00000
     21       6.6977      0.00000
     22       6.7221      0.00000
     23       7.2490      0.00000
     24       7.4079      0.00000
     25       8.9697      0.00000
     26       9.3058      0.00000
     27      10.2353      0.00000
     28      10.3592      0.00000

 k-point     6 :       0.0000    0.1250   -0.0000
  band No.  band energies     occupation 
      1     -52.9425      2.00000
      2     -29.5166      2.00000
      3     -29.2779      2.00000
      4     -29.2648      2.00000
      5     -22.2977      2.00000
      6     -13.9229      2.00000
      7     -13.2748      2.00000
      8     -13.0086      2.00000
      9      -7.3675      2.00000
     10      -7.2094      2.00000
     11      -7.1583      2.00000
     12      -0.3926      2.00000
     13      -0.2157      2.00000
     14       0.3047      2.00000
     15       0.6427      2.00000
     16       1.0552      2.00000
     17       1.1802      2.00000
     18       1.1941      2.00000
     19       2.3206      2.00000
     20       2.4592      2.00000
     21       5.6906      0.00000
     22       6.8899      0.00000
     23       7.3063      0.00000
     24       7.4901      0.00000
     25       8.0227      0.00000
     26       8.5200      0.00000
     27       8.8382      0.00000
     28       9.4413      0.00000

 k-point     7 :       0.1250    0.1250   -0.0000
  band No.  band energies     occupation 
      1     -52.9422      2.00000
      2     -29.5158      2.00000
      3     -29.2776      2.00000
      4     -29.2773      2.00000
      5     -22.2760      2.00000
      6     -13.8744      2.00000
      7     -13.2836      2.00000
      8     -13.0150      2.00000
      9      -7.3553      2.00000
     10      -7.3109      2.00000
     11      -7.1284      2.00000
     12      -0.4163      2.00000
     13      -0.3081      2.00000
     14       0.3508      2.00000
     15       0.6307      2.00000
     16       0.8627      2.00000
     17       1.1520      2.00000
     18       1.3282      2.00000
     19       1.8925      2.00000
     20       2.6401      2.00000
     21       5.8649      0.00000
     22       6.8937      0.00000
     23       7.1105      0.00000
     24       7.6054      0.00000
     25       8.0149      0.00000
     26       8.8048      0.00000
     27       9.0979      0.00000
     28       9.4823      0.00000

 k-point     8 :       0.2500    0.1250   -0.0000
  band No.  band energies     occupation 
      1     -52.9413      2.00000
      2     -29.5138      2.00000
      3     -29.3079      2.00000
      4     -29.2762      2.00000
      5     -22.2227      2.00000
      6     -13.7875      2.00000
      7     -13.2913      2.00000
      8     -13.0142      2.00000
      9      -7.4641      2.00000
     10      -7.3202      2.00000
     11      -7.1358      2.00000
     12      -0.6022      2.00000
     13      -0.2920      2.00000
     14       0.3416      2.00000
     15       0.5436      2.00000
     16       0.6626      2.00000
     17       1.0240      2.00000
     18       1.3399      2.00000
     19       1.5211      2.00000
     20       2.5376      2.00000
     21       6.2549      0.00000
     22       6.5583      0.00000
     23       7.0394      0.00000
     24       7.8737      0.00000
     25       8.3939      0.00000
     26       9.3173      0.00000
     27       9.4703      0.00000
     28       9.7521      0.00000

 k-point     9 :       0.3750    0.1250   -0.0000
  band No.  band energies     occupation 
      1     -52.9404      2.00000
      2     -29.5115      2.00000
      3     -29.3383      2.00000
      4     -29.2749      2.00000
      5     -22.1680      2.00000
      6     -13.7746      2.00000
      7     -13.2271      2.00000
      8     -13.0114      2.00000
      9      -7.5443      2.00000
     10      -7.3624      2.00000
     11      -7.1159      2.00000
     12      -0.7200      2.00000
     13      -0.2532      2.00000
     14       0.0505      2.00000
     15       0.5632      2.00000
     16       0.6411      2.00000
     17       0.8954      2.00000
     18       1.0011      2.00000
     19       1.4910      2.00000
     20       2.2765      2.00000
     21       6.4919      0.00000
     22       6.6812      0.00000
     23       7.0162      0.00000
     24       7.5296      0.00000
     25       9.1370      0.00000
     26       9.5236      0.00000
     27       9.9646      0.00000
     28      10.1758      0.00000

 k-point    10 :       0.5000    0.1250   -0.0000
  band No.  band energies     occupation 
      1     -52.9401      2.00000
      2     -29.5105      2.00000
      3     -29.3509      2.00000
      4     -29.2744      2.00000
      5     -22.1450      2.00000
      6     -13.7928      2.00000
      7     -13.1643      2.00000
      8     -13.0228      2.00000
      9      -7.5580      2.00000
     10      -7.4057      2.00000
     11      -7.0951      2.00000
     12      -0.7469      2.00000
     13      -0.2222      2.00000
     14      -0.0837      2.00000
     15       0.4863      2.00000
     16       0.5942      2.00000
     17       0.8342      2.00000
     18       1.1151      2.00000
     19       1.3282      2.00000
     20       2.1524      2.00000
     21       6.6850      0.00000
     22       6.8435      0.00000
     23       6.9652      0.00000
     24       7.2482      0.00000
     25       9.3208      0.00000
     26       9.6353      0.00000
     27      10.2609      0.00000
     28      10.3190      0.00000

 k-point    11 :      -0.3750    0.1250   -0.0000
  band No.  band energies     occupation 
      1     -52.9404      2.00000
      2     -29.5115      2.00000
      3     -29.3383      2.00000
      4     -29.2749      2.00000
      5     -22.1680      2.00000
      6     -13.7746      2.00000
      7     -13.2271      2.00000
      8     -13.0114      2.00000
      9      -7.5443      2.00000
     10      -7.3624      2.00000
     11      -7.1159      2.00000
     12      -0.7200      2.00000
     13      -0.2532      2.00000
     14       0.0505      2.00000
     15       0.5632      2.00000
     16       0.6411      2.00000
     17       0.8954      2.00000
     18       1.0011      2.00000
     19       1.4910      2.00000
     20       2.2765      2.00000
     21       6.4919      0.00000
     22       6.6812      0.00000
     23       7.0162      0.00000
     24       7.5296      0.00000
     25       9.1370      0.00000
     26       9.5236      0.00000
     27       9.9647      0.00000
     28      10.1761      0.00000

 k-point    12 :      -0.2500    0.1250   -0.0000
  band No.  band energies     occupation 
      1     -52.9413      2.00000
      2     -29.5138      2.00000
      3     -29.3079      2.00000
      4     -29.2762      2.00000
      5     -22.2227      2.00000
      6     -13.7875      2.00000
      7     -13.2913      2.00000
      8     -13.0142      2.00000
      9      -7.4641      2.00000
     10      -7.3202      2.00000
     11      -7.1358      2.00000
     12      -0.6022      2.00000
     13      -0.2920      2.00000
     14       0.3416      2.00000
     15       0.5436      2.00000
     16       0.6626      2.00000
     17       1.0240      2.00000
     18       1.3399      2.00000
     19       1.5211      2.00000
     20       2.5376      2.00000
     21       6.2549      0.00000
     22       6.5583      0.00000
     23       7.0394      0.00000
     24       7.8737      0.00000
     25       8.3939      0.00000
     26       9.3173      0.00000
     27       9.4703      0.00000
     28       9.7521      0.00000

 k-point    13 :      -0.1250    0.1250   -0.0000
  band No.  band energies     occupation 
      1     -52.9422      2.00000
      2     -29.5158      2.00000
      3     -29.2776      2.00000
      4     -29.2773      2.00000
      5     -22.2760      2.00000
      6     -13.8744      2.00000
      7     -13.2836      2.00000
      8     -13.0150      2.00000
      9      -7.3553      2.00000
     10      -7.3109      2.00000
     11      -7.1284      2.00000
     12      -0.4163      2.00000
     13      -0.3081      2.00000
     14       0.3508      2.00000
     15       0.6307      2.00000
     16       0.8627      2.00000
     17       1.1520      2.00000
     18       1.3282      2.00000
     19       1.8925      2.00000
     20       2.6401      2.00000
     21       5.8649      0.00000
     22       6.8937      0.00000
     23       7.1105      0.00000
     24       7.6054      0.00000
     25       8.0149      0.00000
     26       8.8048      0.00000
     27       9.0979      0.00000
     28       9.4823      0.00000

 k-point    14 :       0.0000    0.2500   -0.0000
  band No.  band energies     occupation 
      1     -52.9417      2.00000
      2     -29.5146      2.00000
      3     -29.3085      2.00000
      4     -29.2636      2.00000
      5     -22.2427      2.00000
      6     -13.8412      2.00000
      7     -13.3098      2.00000
      8     -13.0012      2.00000
      9      -7.4438      2.00000
     10      -7.2632      2.00000
     11      -7.0836      2.00000
     12      -0.5942      2.00000
     13      -0.0784      2.00000
     14       0.3607      2.00000
     15       0.6084      2.00000
     16       0.7379      2.00000
     17       0.9628      2.00000
     18       1.2774      2.00000
     19       1.7937      2.00000
     20       2.1506      2.00000
     21       6.1793      0.00000
     22       6.5115      0.00000
     23       7.4513      0.00000
     24       7.9082      0.00000
     25       8.0674      0.00000
     26       8.9955      0.00000
     27       9.3619      0.00000
     28       9.6070      0.00000

 k-point    15 :       0.1250    0.2500   -0.0000
  band No.  band energies     occupation 
      1     -52.9413      2.00000
      2     -29.5138      2.00000
      3     -29.3079      2.00000
      4     -29.2762      2.00000
      5     -22.2227      2.00000
      6     -13.7875      2.00000
      7     -13.2913      2.00000
      8     -13.0142      2.00000
      9      -7.4641      2.00000
     10      -7.3202      2.00000
     11      -7.1358      2.00000
     12      -0.6022      2.00000
     13      -0.2920      2.00000
     14       0.3416      2.00000
     15       0.5436      2.00000
     16       0.6626      2.00000
     17       1.0240      2.00000
     18       1.3399      2.00000
     19       1.5211      2.00000
     20       2.5376      2.00000
     21       6.2549      0.00000
     22       6.5583      0.00000
     23       7.0394      0.00000
     24       7.8737      0.00000
     25       8.3939      0.00000
     26       9.3173      0.00000
     27       9.4703      0.00000
     28       9.7521      0.00000

 k-point    16 :       0.2500    0.2500   -0.0000
  band No.  band energies     occupation 
      1     -52.9404      2.00000
      2     -29.5118      2.00000
      3     -29.3067      2.00000
      4     -29.3063      2.00000
      5     -22.1734      2.00000
      6     -13.6773      2.00000
      7     -13.2398      2.00000
      8     -13.0334      2.00000
      9      -7.5866      2.00000
     10      -7.3682      2.00000
     11      -7.2539      2.00000
     12      -0.6288      2.00000
     13      -0.5827      2.00000
     14      -0.1101      2.00000
     15       0.5054      2.00000
     16       0.8152      2.00000
     17       0.9017      2.00000
     18       1.0680      2.00000
     19       1.8068      2.00000
     20       2.8296      2.00000
     21       6.3525      0.00000
     22       6.6374      0.00000
     23       6.6983      0.00000
     24       7.6945      0.00000
     25       9.1895      0.00000
     26       9.7280      0.00000
     27       9.8247      0.00000
     28      10.1152      0.00000

 k-point    17 :       0.3750    0.2500   -0.0000
  band No.  band energies     occupation 
      1     -52.9396      2.00000
      2     -29.5096      2.00000
      3     -29.3368      2.00000
      4     -29.3051      2.00000
      5     -22.1231      2.00000
      6     -13.6164      2.00000
      7     -13.1575      2.00000
      8     -13.0340      2.00000
      9      -7.6954      2.00000
     10      -7.5005      2.00000
     11      -7.2727      2.00000
     12      -0.7795      2.00000
     13      -0.6144      2.00000
     14      -0.4487      2.00000
     15       0.2713      2.00000
     16       0.5703      2.00000
     17       0.8279      2.00000
     18       1.3509      2.00000
     19       1.9021      2.00000
     20       2.8919      2.00000
     21       6.3207      0.00000
     22       6.6801      0.00000
     23       6.9209      0.00000
     24       7.3913      0.00000
     25       9.7005      0.00000
     26      10.1373      0.00000
     27      10.2533      0.00000
     28      10.4523      0.00000

 k-point    18 :       0.5000    0.2500   -0.0000
  band No.  band energies     occupation 
      1     -52.9392      2.00000
      2     -29.5086      2.00000
      3     -29.3493      2.00000
      4     -29.3045      2.00000
      5     -22.1019      2.00000
      6     -13.6100      2.00000
      7     -13.1042      2.00000
      8     -13.0343      2.00000
      9      -7.7131      2.00000
     10      -7.5944      2.00000
     11      -7.2616      2.00000
     12      -0.8310      2.00000
     13      -0.6039      2.00000
     14      -0.5740      2.00000
     15       0.2600      2.00000
     16       0.3012      2.00000
     17       0.8169      2.00000
     18       1.6947      2.00000
     19       1.7142      2.00000
     20       2.8918      2.00000
     21       6.3748      0.00000
     22       6.7401      0.00000
     23       7.0646      0.00000
     24       7.1505      0.00000
     25       9.7942      0.00000
     26      10.2380      0.00000
     27      10.3239      0.00000
     28      10.9007      0.00000

 k-point    19 :      -0.3750    0.2500    0.0000
  band No.  band energies     occupation 
      1     -52.9396      2.00000
      2     -29.5096      2.00000
      3     -29.3368      2.00000
      4     -29.3051      2.00000
      5     -22.1231      2.00000
      6     -13.6164      2.00000
      7     -13.1575      2.00000
      8     -13.0340      2.00000
      9      -7.6954      2.00000
     10      -7.5005      2.00000
     11      -7.2727      2.00000
     12      -0.7795      2.00000
     13      -0.6144      2.00000
     14      -0.4487      2.00000
     15       0.2713      2.00000
     16       0.5703      2.00000
     17       0.8279      2.00000
     18       1.3509      2.00000
     19       1.9021      2.00000
     20       2.8919      2.00000
     21       6.3207      0.00000
     22       6.6801      0.00000
     23       6.9209      0.00000
     24       7.3913      0.00000
     25       9.7005      0.00000
     26      10.1373      0.00000
     27      10.2534      0.00000
     28      10.4522      0.00000

 k-point    20 :      -0.2500    0.2500   -0.0000
  band No.  band energies     occupation 
      1     -52.9404      2.00000
      2     -29.5118      2.00000
      3     -29.3067      2.00000
      4     -29.3063      2.00000
      5     -22.1734      2.00000
      6     -13.6773      2.00000
      7     -13.2398      2.00000
      8     -13.0334      2.00000
      9      -7.5866      2.00000
     10      -7.3682      2.00000
     11      -7.2539      2.00000
     12      -0.6288      2.00000
     13      -0.5827      2.00000
     14      -0.1101      2.00000
     15       0.5054      2.00000
     16       0.8152      2.00000
     17       0.9017      2.00000
     18       1.0680      2.00000
     19       1.8068      2.00000
     20       2.8296      2.00000
     21       6.3525      0.00000
     22       6.6374      0.00000
     23       6.6983      0.00000
     24       7.6945      0.00000
     25       9.1895      0.00000
     26       9.7280      0.00000
     27       9.8247      0.00000
     28      10.1154      0.00000

 k-point    21 :      -0.1250    0.2500   -0.0000
  band No.  band energies     occupation 
      1     -52.9413      2.00000
      2     -29.5138      2.00000
      3     -29.3079      2.00000
      4     -29.2762      2.00000
      5     -22.2227      2.00000
      6     -13.7875      2.00000
      7     -13.2913      2.00000
      8     -13.0142      2.00000
      9      -7.4641      2.00000
     10      -7.3202      2.00000
     11      -7.1358      2.00000
     12      -0.6022      2.00000
     13      -0.2920      2.00000
     14       0.3416      2.00000
     15       0.5436      2.00000
     16       0.6626      2.00000
     17       1.0240      2.00000
     18       1.3399      2.00000
     19       1.5211      2.00000
     20       2.5376      2.00000
     21       6.2549      0.00000
     22       6.5583      0.00000
     23       7.0394      0.00000
     24       7.8737      0.00000
     25       8.3939      0.00000
     26       9.3173      0.00000
     27       9.4703      0.00000
     28       9.7521      0.00000

 k-point    22 :      -0.0000    0.3750   -0.0000
  band No.  band energies     occupation 
      1     -52.9408      2.00000
      2     -29.5123      2.00000
      3     -29.3389      2.00000
      4     -29.2624      2.00000
      5     -22.1863      2.00000
      6     -13.8399      2.00000
      7     -13.2555      2.00000
      8     -13.0025      2.00000
      9      -7.4893      2.00000
     10      -7.3295      2.00000
     11      -7.0058      2.00000
     12      -0.7005      2.00000
     13       0.1184      2.00000
     14       0.2948      2.00000
     15       0.4671      2.00000
     16       0.6935      2.00000
     17       0.7539      2.00000
     18       1.1968      2.00000
     19       1.2834      2.00000
     20       1.7766      2.00000
     21       6.5023      0.00000
     22       6.5743      0.00000
     23       7.4215      0.00000
     24       7.5622      0.00000
     25       8.7905      0.00000
     26       9.1759      0.00000
     27       9.8925      0.00000
     28      10.1946      0.00000

 k-point    23 :       0.1250    0.3750   -0.0000
  band No.  band energies     occupation 
      1     -52.9404      2.00000
      2     -29.5115      2.00000
      3     -29.3383      2.00000
      4     -29.2749      2.00000
      5     -22.1680      2.00000
      6     -13.7746      2.00000
      7     -13.2271      2.00000
      8     -13.0114      2.00000
      9      -7.5443      2.00000
     10      -7.3624      2.00000
     11      -7.1159      2.00000
     12      -0.7200      2.00000
     13      -0.2532      2.00000
     14       0.0505      2.00000
     15       0.5632      2.00000
     16       0.6411      2.00000
     17       0.8954      2.00000
     18       1.0011      2.00000
     19       1.4910      2.00000
     20       2.2765      2.00000
     21       6.4919      0.00000
     22       6.6812      0.00000
     23       7.0162      0.00000
     24       7.5296      0.00000
     25       9.1370      0.00000
     26       9.5236      0.00000
     27       9.9646      0.00000
     28      10.1760      0.00000

 k-point    24 :       0.2500    0.3750   -0.0000
  band No.  band energies     occupation 
      1     -52.9396      2.00000
      2     -29.5096      2.00000
      3     -29.3368      2.00000
      4     -29.3051      2.00000
      5     -22.1231      2.00000
      6     -13.6164      2.00000
      7     -13.1575      2.00000
      8     -13.0340      2.00000
      9      -7.6954      2.00000
     10      -7.5005      2.00000
     11      -7.2727      2.00000
     12      -0.7795      2.00000
     13      -0.6144      2.00000
     14      -0.4487      2.00000
     15       0.2713      2.00000
     16       0.5703      2.00000
     17       0.8279      2.00000
     18       1.3509      2.00000
     19       1.9021      2.00000
     20       2.8919      2.00000
     21       6.3207      0.00000
     22       6.6801      0.00000
     23       6.9209      0.00000
     24       7.3913      0.00000
     25       9.7005      0.00000
     26      10.1373      0.00000
     27      10.2534      0.00000
     28      10.4522      0.00000

 k-point    25 :       0.3750    0.3750   -0.0000
  band No.  band energies     occupation 
      1     -52.9387      2.00000
      2     -29.5074      2.00000
      3     -29.3353      2.00000
      4     -29.3351      2.00000
      5     -22.0773      2.00000
      6     -13.4617      2.00000
      7     -13.0876      2.00000
      8     -13.0519      2.00000
      9      -7.8379      2.00000
     10      -7.7210      2.00000
     11      -7.3203      2.00000
     12      -0.9802      2.00000
     13      -0.7823      2.00000
     14      -0.6068      2.00000
     15      -0.0332      2.00000
     16       0.3367      2.00000
     17       0.6831      2.00000
     18       1.7997      2.00000
     19       2.1485      2.00000
     20       3.2607      2.00000
     21       6.1149      0.00000
     22       6.7415      0.00000
     23       7.0842      0.00000
     24       7.2263      0.00000
     25      10.0084      0.00000
     26      10.4075      0.00000
     27      10.5237      0.00000
     28      11.0905      0.00000

 k-point    26 :       0.5000    0.3750   -0.0000
  band No.  band energies     occupation 
      1     -52.9383      2.00000
      2     -29.5064      2.00000
      3     -29.3477      2.00000
      4     -29.3346      2.00000
      5     -22.0580      2.00000
      6     -13.4024      2.00000
      7     -13.0617      2.00000
      8     -13.0511      2.00000
      9      -7.8701      2.00000
     10      -7.8385      2.00000
     11      -7.3321      2.00000
     12      -1.0673      2.00000
     13      -0.8847      2.00000
     14      -0.5484      2.00000
     15      -0.0830      2.00000
     16       0.0853      2.00000
     17       0.6448      2.00000
     18       2.0947      2.00000
     19       2.1013      2.00000
     20       3.3743      2.00000
     21       6.0958      0.00000
     22       6.8108      0.00000
     23       6.9559      0.00000
     24       7.2954      0.00000
     25      10.0999      0.00000
     26      10.4754      0.00000
     27      10.7443      0.00000
     28      11.2215      0.00000

 k-point    27 :      -0.3750    0.3750   -0.0000
  band No.  band energies     occupation 
      1     -52.9387      2.00000
      2     -29.5074      2.00000
      3     -29.3353      2.00000
      4     -29.3351      2.00000
      5     -22.0773      2.00000
      6     -13.4617      2.00000
      7     -13.0876      2.00000
      8     -13.0519      2.00000
      9      -7.8379      2.00000
     10      -7.7210      2.00000
     11      -7.3203      2.00000
     12      -0.9802      2.00000
     13      -0.7823      2.00000
     14      -0.6068      2.00000
     15      -0.0332      2.00000
     16       0.3367      2.00000
     17       0.6831      2.00000
     18       1.7997      2.00000
     19       2.1485      2.00000
     20       3.2607      2.00000
     21       6.1149      0.00000
     22       6.7415      0.00000
     23       7.0842      0.00000
     24       7.2263      0.00000
     25      10.0084      0.00000
     26      10.4075      0.00000
     27      10.5237      0.00000
     28      11.0905      0.00000

 k-point    28 :      -0.2500    0.3750   -0.0000
  band No.  band energies     occupation 
      1     -52.9396      2.00000
      2     -29.5096      2.00000
      3     -29.3368      2.00000
      4     -29.3051      2.00000
      5     -22.1231      2.00000
      6     -13.6164      2.00000
      7     -13.1575      2.00000
      8     -13.0340      2.00000
      9      -7.6954      2.00000
     10      -7.5005      2.00000
     11      -7.2727      2.00000
     12      -0.7795      2.00000
     13      -0.6144      2.00000
     14      -0.4487      2.00000
     15       0.2713      2.00000
     16       0.5703      2.00000
     17       0.8279      2.00000
     18       1.3509      2.00000
     19       1.9021      2.00000
     20       2.8919      2.00000
     21       6.3207      0.00000
     22       6.6801      0.00000
     23       6.9209      0.00000
     24       7.3913      0.00000
     25       9.7005      0.00000
     26      10.1373      0.00000
     27      10.2533      0.00000
     28      10.4521      0.00000

 k-point    29 :      -0.1250    0.3750   -0.0000
  band No.  band energies     occupation 
      1     -52.9404      2.00000
      2     -29.5115      2.00000
      3     -29.3383      2.00000
      4     -29.2749      2.00000
      5     -22.1680      2.00000
      6     -13.7746      2.00000
      7     -13.2271      2.00000
      8     -13.0114      2.00000
      9      -7.5443      2.00000
     10      -7.3624      2.00000
     11      -7.1159      2.00000
     12      -0.7200      2.00000
     13      -0.2532      2.00000
     14       0.0505      2.00000
     15       0.5632      2.00000
     16       0.6411      2.00000
     17       0.8954      2.00000
     18       1.0011      2.00000
     19       1.4910      2.00000
     20       2.2765      2.00000
     21       6.4919      0.00000
     22       6.6812      0.00000
     23       7.0162      0.00000
     24       7.5296      0.00000
     25       9.1370      0.00000
     26       9.5236      0.00000
     27       9.9646      0.00000
     28      10.1758      0.00000

 k-point    30 :       0.0000    0.5000   -0.0000
  band No.  band energies     occupation 
      1     -52.9404      2.00000
      2     -29.5113      2.00000
      3     -29.3516      2.00000
      4     -29.2619      2.00000
      5     -22.1626      2.00000
      6     -13.8645      2.00000
      7     -13.1912      2.00000
      8     -13.0194      2.00000
      9      -7.4945      2.00000
     10      -7.3658      2.00000
     11      -6.9726      2.00000
     12      -0.7189      2.00000
     13       0.1492      2.00000
     14       0.2399      2.00000
     15       0.4910      2.00000
     16       0.6934      2.00000
     17       0.7779      2.00000
     18       1.0217      2.00000
     19       1.0703      2.00000
     20       1.5971      2.00000
     21       6.6977      0.00000
     22       6.7221      0.00000
     23       7.2490      0.00000
     24       7.4079      0.00000
     25       8.9697      0.00000
     26       9.3058      0.00000
     27      10.2355      0.00000
     28      10.3594      0.00000

 k-point    31 :       0.1250    0.5000   -0.0000
  band No.  band energies     occupation 
      1     -52.9401      2.00000
      2     -29.5105      2.00000
      3     -29.3509      2.00000
      4     -29.2744      2.00000
      5     -22.1450      2.00000
      6     -13.7928      2.00000
      7     -13.1643      2.00000
      8     -13.0228      2.00000
      9      -7.5580      2.00000
     10      -7.4057      2.00000
     11      -7.0951      2.00000
     12      -0.7469      2.00000
     13      -0.2222      2.00000
     14      -0.0837      2.00000
     15       0.4863      2.00000
     16       0.5942      2.00000
     17       0.8342      2.00000
     18       1.1151      2.00000
     19       1.3282      2.00000
     20       2.1524      2.00000
     21       6.6850      0.00000
     22       6.8435      0.00000
     23       6.9652      0.00000
     24       7.2482      0.00000
     25       9.3208      0.00000
     26       9.6353      0.00000
     27      10.2608      0.00000
     28      10.3189      0.00000

 k-point    32 :       0.2500    0.5000   -0.0000
  band No.  band energies     occupation 
      1     -52.9392      2.00000
      2     -29.5086      2.00000
      3     -29.3493      2.00000
      4     -29.3045      2.00000
      5     -22.1019      2.00000
      6     -13.6100      2.00000
      7     -13.1042      2.00000
      8     -13.0343      2.00000
      9      -7.7131      2.00000
     10      -7.5944      2.00000
     11      -7.2616      2.00000
     12      -0.8310      2.00000
     13      -0.6039      2.00000
     14      -0.5740      2.00000
     15       0.2600      2.00000
     16       0.3012      2.00000
     17       0.8169      2.00000
     18       1.6947      2.00000
     19       1.7142      2.00000
     20       2.8918      2.00000
     21       6.3748      0.00000
     22       6.7401      0.00000
     23       7.0646      0.00000
     24       7.1505      0.00000
     25       9.7943      0.00000
     26      10.2392      0.00000
     27      10.3239      0.00000
     28      11.0515      0.00000

 k-point    33 :       0.3750    0.5000   -0.0000
  band No.  band energies     occupation 
      1     -52.9383      2.00000
      2     -29.5064      2.00000
      3     -29.3477      2.00000
      4     -29.3346      2.00000
      5     -22.0580      2.00000
      6     -13.4024      2.00000
      7     -13.0617      2.00000
      8     -13.0511      2.00000
      9      -7.8701      2.00000
     10      -7.8385      2.00000
     11      -7.3321      2.00000
     12      -1.0673      2.00000
     13      -0.8847      2.00000
     14      -0.5484      2.00000
     15      -0.0830      2.00000
     16       0.0853      2.00000
     17       0.6448      2.00000
     18       2.0947      2.00000
     19       2.1013      2.00000
     20       3.3743      2.00000
     21       6.0958      0.00000
     22       6.8108      0.00000
     23       6.9559      0.00000
     24       7.2954      0.00000
     25      10.0999      0.00000
     26      10.4764      0.00000
     27      10.7467      0.00000
     28      11.3311      0.00000

 k-point    34 :       0.5000    0.5000   -0.0000
  band No.  band energies     occupation 
      1     -52.9380      2.00000
      2     -29.5054      2.00000
      3     -29.3470      2.00000
      4     -29.3470      2.00000
      5     -22.0396      2.00000
      6     -13.2986      2.00000
      7     -13.0597      2.00000
      8     -13.0597      2.00000
      9      -7.9357      2.00000
     10      -7.9357      2.00000
     11      -7.3557      2.00000
     12      -1.1742      2.00000
     13      -0.9711      2.00000
     14      -0.2722      2.00000
     15      -0.2389      2.00000
     16      -0.2389      2.00000
     17       0.5711      2.00000
     18       2.2405      2.00000
     19       2.2405      2.00000
     20       3.5323      2.00000
     21       6.0549      0.00000
     22       6.8416      0.00000
     23       6.8416      0.00000
     24       7.3970      0.00000
     25      10.2104      0.00000
     26      10.7226      0.00000
     27      10.9816      0.00000
     28      11.2217      0.00000


--------------------------------------------------------------------------------------------------------


 soft charge-density along one line, spin component           1
         0         1         2         3         4         5         6         7         8         9
 total charge-density along one line
 
 pseudopotential strength for first ion, spin component:           1
  1.105  -5.095  -0.000  -0.028  -0.000  -0.000   0.001   0.000
 -5.095   0.758   0.000   0.019   0.000  -0.000  -0.009   0.000
 -0.000   0.000  -7.863   0.000  -0.000   4.576   0.000  -0.000
 -0.028   0.019   0.000  -7.868   0.000   0.000   4.569   0.000
 -0.000   0.000  -0.000   0.000  -7.863  -0.000   0.000   4.576
 -0.000  -0.000   4.576   0.000  -0.000   6.642  -0.000   0.000
  0.001  -0.009   0.000   4.569   0.000  -0.000   6.647  -0.000
  0.000   0.000  -0.000   0.000   4.576   0.000  -0.000   6.642
 -0.000   0.000   0.000   0.000  -0.000   0.000   0.000  -0.000
  0.000  -0.000  -0.009  -0.000   0.000  -0.002  -0.000   0.000
 -0.003   0.002   0.000  -0.011  -0.000   0.000  -0.003  -0.000
  0.000  -0.000   0.000  -0.000  -0.009   0.000  -0.000  -0.002
  0.000  -0.000   0.000   0.000   0.000   0.000   0.000   0.000
 -0.000   0.000   0.000   0.000  -0.000   0.000   0.000  -0.000
  0.000  -0.000  -0.013  -0.000   0.000  -0.003  -0.000   0.000
 -0.004   0.003   0.000  -0.016  -0.000   0.000  -0.005  -0.000
  0.000  -0.000   0.000  -0.000  -0.013   0.000  -0.000  -0.003
  0.000  -0.000   0.000   0.000   0.000   0.000   0.000   0.000
 total augmentation occupancy for first ion, spin component:           1
  2.000   0.000   0.000   0.000   0.000   0.000   0.000   0.000   0.000   0.000   0.000   0.000   0.000   0.000   0.000   0.000
  0.000   1.990   0.000   0.000   0.000   0.000   0.000   0.000   0.000   0.000   0.000   0.000   0.000   0.000   0.000   0.000
  0.000   0.000   2.000   0.000   0.000   0.000   0.000   0.000   0.000   0.000   0.000   0.000   0.000   0.000   0.000   0.000
  0.000   0.000   0.000   2.000   0.000   0.000   0.000   0.000   0.000   0.000   0.000   0.000   0.000   0.000   0.000   0.000
  0.000   0.000   0.000   0.000   2.000   0.000   0.000   0.000   0.000   0.000   0.000   0.000   0.000   0.000   0.000   0.000
  0.000   0.000   0.000   0.000   0.000   0.000   0.000   0.000   0.000   0.000   0.000   0.000   0.000   0.000   0.000   0.000
  0.000   0.000   0.000   0.000   0.000   0.000   0.000   0.000   0.000   0.000   0.000   0.000   0.000   0.000   0.000   0.000
  0.000   0.000   0.000   0.000   0.000   0.000   0.000   0.000   0.000   0.000   0.000   0.000   0.000   0.000   0.000   0.000
  0.000   0.000   0.000   0.000   0.000   0.000   0.000   0.000   0.002   0.000   0.000   0.000   0.000   0.000   0.000   0.000
  0.000   0.000   0.000   0.000   0.000   0.000   0.000   0.000   0.000   0.002   0.000   0.000   0.000   0.000   0.000   0.000
  0.000   0.000   0.000   0.000   0.000   0.000   0.000   0.000   0.000   0.000   0.002   0.000   0.000   0.000   0.000   0.000
  0.000   0.000   0.000   0.000   0.000   0.000   0.000   0.000   0.000   0.000   0.000   0.002   0.000   0.000   0.000   0.000
  0.000   0.000   0.000   0.000   0.000   0.000   0.000   0.000   0.000   0.000   0.000   0.000   0.002   0.000   0.000   0.000
  0.000   0.000   0.000   0.000   0.000   0.000   0.000   0.000   0.000   0.000   0.000   0.000   0.000   0.000   0.000   0.000
  0.000   0.000   0.000   0.000   0.000   0.000   0.000   0.000   0.000   0.000   0.000   0.000   0.000   0.000   0.000   0.000
  0.000   0.000   0.000   0.000   0.000   0.000   0.000   0.000   0.000   0.000   0.000   0.000   0.000   0.000   0.000   0.000
  0.000   0.000   0.000   0.000   0.000   0.000   0.000   0.000   0.000   0.000   0.000   0.000   0.000   0.000   0.000   0.000
  0.000   0.000   0.000   0.000   0.000   0.000   0.000   0.000   0.000   0.000   0.000   0.000   0.000   0.000   0.000   0.000


------------------------ aborting loop because EDIFF is reached ----------------------------------------


 


 total charge     
 
# of ion       s       p       d       tot
------------------------------------------
    1        2.006   5.616   0.341   7.963
    2        2.239   6.295   1.885  10.419
    3        1.558   3.447   0.000   5.004
    4        1.558   3.447   0.000   5.004
    5        1.562   3.459   0.000   5.021
--------------------------------------------------
tot          8.922  22.263   2.225  33.411
 
    CHARGE:  cpu time    0.0080: real time    0.0080
    FORLOC:  cpu time    0.0002: real time    0.0002
    FORNL :  cpu time    0.0153: real time    0.0154
    STRESS:  cpu time    0.0397: real time    0.0397
    FORCOR:  cpu time    0.0031: real time    0.0031
    FORHAR:  cpu time    0.0009: real time    0.0009
    OFIELD:  cpu time    0.0000: real time    0.0000

  FORCE on cell =-STRESS in cart. coord.  units (eV):
  Direction    XX          YY          ZZ          XY          YZ          ZX
  --------------------------------------------------------------------------------------
  Alpha Z   230.92624   230.92624   230.92624
  Ewald    -810.43390  -810.43390 -1003.56004    -0.00000    -0.00000     0.00000
  Hartree   394.02521   394.02525   197.06355     0.00001    -0.00001     0.00001
  E(xc)    -184.37911  -184.37911  -184.46299     0.00000     0.00000    -0.00000
  Local    -270.94327  -270.94331   119.93701    -0.00002     0.00000    -0.00001
  n-local  -140.73946  -140.73935  -146.61858    -0.00002     0.00000     0.00001
  augment    68.24427    68.24425    69.29130     0.00001     0.00000    -0.00000
  Kinetic   713.30338   713.30331   717.44452     0.00003     0.00004    -0.00004
  Fock        0.00000     0.00000     0.00000     0.00000     0.00000     0.00000
  -------------------------------------------------------------------------------------
  Total       0.00335     0.00337     0.02100    -0.00001     0.00004    -0.00003
  in kB       0.07461     0.07526     0.46834    -0.00022     0.00096    -0.00066
  external pressure =        0.21 kB  Pullay stress =        0.00 kB


 VOLUME and BASIS-vectors are now :
 -----------------------------------------------------------------------------
  energy-cutoff  :      650.00
  volume of cell :       71.84
      direct lattice vectors                 reciprocal lattice vectors
     3.769967673  0.000000000 -0.000000000     0.265254264 -0.000000000 -0.000000000
     0.000000000  3.769967673 -0.000000000    -0.000000000  0.265254264 -0.000000000
     0.000000000  0.000000000  5.054758001     0.000000000  0.000000000  0.197833408

  length of vectors
     3.769967673  3.769967673  5.054758001     0.265254264  0.265254264  0.197833408


 FORCES acting on ions
    electron-ion (+dipol)            ewald-force                    non-local-force                 convergence-correction
 -----------------------------------------------------------------------------------------------
   0.442E-06 -.658E-05 0.911E+02   0.449E-13 -.342E-13 -.882E+02   0.138E-04 -.330E-05 -.294E+01   0.978E-06 0.299E-05 0.158E-02
   -.525E-04 0.198E-04 0.694E+01   0.197E-12 0.454E-12 -.542E+01   -.175E-04 0.174E-04 -.150E+01   0.322E-04 -.955E-05 -.111E-01
   0.569E-05 -.386E-04 0.661E+02   -.198E-12 0.854E-13 -.685E+02   0.201E-04 0.172E-04 0.234E+01   -.595E-05 0.167E-04 0.411E-03
   0.203E-04 0.534E-05 0.661E+02   0.877E-14 -.450E-12 -.685E+02   -.775E-05 -.595E-05 0.234E+01   -.755E-05 0.304E-06 0.427E-03
   0.689E-05 -.934E-05 -.215E+03   -.516E-13 -.542E-13 0.231E+03   0.126E-04 -.926E-05 -.153E+02   -.500E-05 0.558E-05 -.114E-01
 -----------------------------------------------------------------------------------------------
   -.191E-04 -.294E-04 0.151E+02   0.856E-15 0.133E-14 -.568E-13   0.213E-04 0.161E-04 -.151E+02   0.147E-04 0.161E-04 -.200E-01
 
 
 POSITION                                       TOTAL-FORCE (eV/Angst)
 -----------------------------------------------------------------------------------
      0.00000      0.00000      0.43160         0.000012     -0.000007     -0.008329
      1.88498      1.88498      2.91161        -0.000041      0.000027      0.019822
      0.00000      1.88498      2.36310         0.000017     -0.000005     -0.000162
      1.88498      0.00000      2.36310         0.000002     -0.000001     -0.000171
      1.88498      1.88498      4.66857         0.000011     -0.000014     -0.011160
 -----------------------------------------------------------------------------------
    total drift:                                0.000017      0.000003     -0.029482


--------------------------------------------------------------------------------------------------------



  FREE ENERGIE OF THE ION-ELECTRON SYSTEM (eV)
  ---------------------------------------------------
  free  energy   TOTEN  =       -41.61877932 eV

  energy  without entropy=      -41.61877932  energy(sigma->0) =      -41.61877932
 


--------------------------------------------------------------------------------------------------------


    POTLOK:  cpu time    0.0051: real time    0.0051


--------------------------------------------------------------------------------------------------------


 writing wavefunctions
     LOOP+:  cpu time    0.9273: real time    1.0148
    4ORBIT:  cpu time    0.0000: real time    0.0000
 


 total charge     
 
# of ion       s       p       d       tot
------------------------------------------
    1        2.006   5.616   0.341   7.963
    2        2.239   6.295   1.885  10.419
    3        1.558   3.447   0.000   5.004
    4        1.558   3.447   0.000   5.004
    5        1.562   3.459   0.000   5.021
--------------------------------------------------
tot          8.922  22.263   2.225  33.411
 
 BZINTS: Fermi energy:  3.544527; 40.000000 electrons
         Band energy:-437.807563;  BLOECHL correction:  0.000000

 total amount of memory used by VASP MPI-rank0    32713. kBytes
=======================================================================

   base      :      30000. kBytes
   nonlr-proj:        513. kBytes
   fftplans  :        274. kBytes
   grid      :        495. kBytes
   one-center:         15. kBytes
   wavefun   :       1416. kBytes
 
  
  
 General timing and accounting informations for this job:
 ========================================================
  
                  Total CPU time used (sec):        4.619
                            User time (sec):        3.734
                          System time (sec):        0.885
                         Elapsed time (sec):        6.736
  
                   Maximum memory used (kb):      226960.
                   Average memory used (kb):           0.
  
                          Minor page faults:        15928
                          Major page faults:         1062
                 Voluntary context switches:         3900
