unknown system                          
           1
     3.769968    0.000000   -0.000000
     0.000000    3.769968   -0.000000
     0.000000    0.000000    5.054758
   Ba   Ti   O 
   1   1   3
Direct configuration=     1
   0.00000000  0.00000000  0.08538490
   0.50000000  0.50000000  0.57601335
   0.00000000  0.50000000  0.46750111
   0.50000000  0.00000000  0.46750111
   0.50000000  0.50000000  0.92359955
