================================================================================
| EXCITING BORON started                                                       =
| version hash id:                                                             =
| MPI version using     16 processor(s)                                        =
|                                                                              =
| Date (DD-MM-YYYY) : 12-08-2015                                               =
| Time (hh:mm:ss)   : 22:33:52                                                 =
|                                                                              =
| All units are atomic (Hartree, Bohr, etc.)                                   =
================================================================================
 
********************************************************************************
| Structural optimisation starting from atomic densities                       *
********************************************************************************
 
++++++++++++++++++++++++++++++++++++++++++++++++++++++++++++++++++++++++++++++++
| Starting initialization                                                      +
++++++++++++++++++++++++++++++++++++++++++++++++++++++++++++++++++++++++++++++++
 
 Lattice vectors (cartesian) :
      2.3957931338      4.0304822292      0.0000000000
     -2.3957931338      4.0304822292      0.0000000000
      0.0000000000      0.0000000000      6.5761020000
 
 Reciprocal lattice vectors (cartesian) :
      1.3112954575      0.7794582571      0.0000000000
     -1.3112954575      0.7794582571      0.0000000000
      0.0000000000      0.0000000000      0.9554573982
 
 Unit cell volume                           :     127.0003339743
 Brillouin zone volume                      :       1.9531461507
 
 Species :    1 (C)
     parameters loaded from                 :    C.xml
     name                                   :    carbon
     nuclear charge                         :      -6.00000000
     electronic charge                      :       6.00000000
     atomic mass                            :   21894.16673000
     muffin-tin radius                      :       1.20000000
     # of radial points in muffin-tin       :     250
 
     atomic positions (lattice) :
       1 :   0.00000000  0.00000000  0.00000000
       2 :   0.33333333  0.33333333  0.00000000
 
 Total number of atoms per unit cell        :       2
 
 Spin treatment                             :    spin-unpolarised
 
 Number of Bravais lattice symmetries       :       8
 Number of crystal symmetries               :       8
 
 k-point grid                               :      34   34   24
 Total number of k-points                   :    3991
 k-point set is reduced with crystal symmetries
 
 R^MT_min * |G+k|_max (rgkmax)              :       8.00000000
 Species with R^MT_min                      :       1 (C)
 Maximum |G+k| for APW functions            :       6.66666667
 Maximum |G| for potential and density      :      20.00000000
 
 G-vector grid sizes                        :      30    30    45
 Total number of G-vectors                  :   17139
 
 Maximum angular momentum used for
     APW functions                          :       8
     computing H and O matrix elements      :       8
     potential and density                  :       8
     inner part of muffin-tin               :       2
 
 Total nuclear charge                       :     -12.00000000
 Total electronic charge                    :      12.00000000
 Total core charge                          :       4.00000000
 Total valence charge                       :       8.00000000
 
 Number of empty states                     :       5
 Total number of valence states             :      10
 
 Maximum Hamiltonian size                   :     664
 Maximum number of plane-waves              :     656
 Total number of local-orbitals             :       8
 
 Exchange-correlation type                  :      20
     Perdew-Burke-Ernzerhof, Phys. Rev. Lett. 77, 3865 (1996)
     Generalised gradient approximation (GGA)
 
 Smearing scheme                            :    Gaussian
 Smearing width                             :       0.01000000
 
 Using multisecant Broyden potential mixing
 
++++++++++++++++++++++++++++++++++++++++++++++++++++++++++++++++++++++++++++++++
| Ending initialization                                                        +
++++++++++++++++++++++++++++++++++++++++++++++++++++++++++++++++++++++++++++++++
 
********************************************************************************
| Groundstate module started                                                   *
********************************************************************************
 Output level for this task is set to normal
 
++++++++++++++++++++++++++++++++++++++++++++++++++++++++++++++++++++++++++++++++
| Self-consistent loop started                                                 +
++++++++++++++++++++++++++++++++++++++++++++++++++++++++++++++++++++++++++++++++
 Density and potential initialised from atomic data
 
 
++++++++++++++++++++++++++++++++++++++++++++++++++++++++++++++++++++++++++++++++
| SCF iteration number :    1                                                  +
++++++++++++++++++++++++++++++++++++++++++++++++++++++++++++++++++++++++++++++++
 Total energy                               :       -78.18813877
 _______________________________________________________________
 Fermi energy                               :         0.15434539
 Kinetic energy                             :        74.47978567
 Coulomb energy                             :      -141.78677080
 Exchange energy                            :       -10.46427084
 Correlation energy                         :        -0.41688280
 
 DOS at Fermi energy (states/Ha/cell)       :         1.05497040
 
 Electron charges :
     core                                   :         4.00000000
     core leakage                           :         0.00127983
     valence                                :         8.00000000
     interstitial                           :         4.60925594
     charge in muffin-tin spheres :
                  atom     1     C          :         3.69537203
                  atom     2     C          :         3.69537203
     total charge in muffin-tins            :         7.39074406
     total charge                           :        12.00000000
 
 Wall time (seconds)                        :       106.09
 
++++++++++++++++++++++++++++++++++++++++++++++++++++++++++++++++++++++++++++++++
| SCF iteration number :    2                                                  +
++++++++++++++++++++++++++++++++++++++++++++++++++++++++++++++++++++++++++++++++
 Total energy                               :       -77.45837175
 _______________________________________________________________
 Fermi energy                               :         0.17470721
 Kinetic energy                             :        74.97217230
 Coulomb energy                             :      -141.58422003
 Exchange energy                            :       -10.42856595
 Correlation energy                         :        -0.41775806
 
 DOS at Fermi energy (states/Ha/cell)       :         1.12972146
 
 Electron charges :
     core                                   :         4.00000000
     core leakage                           :         0.00129101
     valence                                :         8.00000000
     interstitial                           :         4.66884990
     charge in muffin-tin spheres :
                  atom     1     C          :         3.66557505
                  atom     2     C          :         3.66557505
     total charge in muffin-tins            :         7.33115010
     total charge                           :        12.00000000
 
 Wall time (seconds)                        :       210.18
 
 RMS change in effective potential (target) :   1.60251      ( 0.100000E-05)
 Absolute change in total energy   (target) :  0.729767      ( 0.100000E-06)
 Charge distance                   (target) :  0.122628E-01  ( 0.100000E-04)
 Abs. change in max-nonIBS-force   (target) :  0.300437E-01  ( 0.250000E-05)
 
++++++++++++++++++++++++++++++++++++++++++++++++++++++++++++++++++++++++++++++++
| SCF iteration number :    3                                                  +
++++++++++++++++++++++++++++++++++++++++++++++++++++++++++++++++++++++++++++++++
 Total energy                               :       -76.94261500
 _______________________________________________________________
 Fermi energy                               :         0.18861172
 Kinetic energy                             :        75.31738925
 Coulomb energy                             :      -141.43877839
 Exchange energy                            :       -10.40278519
 Correlation energy                         :        -0.41844067
 
 DOS at Fermi energy (states/Ha/cell)       :         1.19085085
 
 Electron charges :
     core                                   :         4.00000000
     core leakage                           :         0.00129813
     valence                                :         8.00000000
     interstitial                           :         4.71212960
     charge in muffin-tin spheres :
                  atom     1     C          :         3.64393520
                  atom     2     C          :         3.64393520
     total charge in muffin-tins            :         7.28787040
     total charge                           :        12.00000000
 
 Wall time (seconds)                        :       314.05
 
 RMS change in effective potential (target) :   1.18165      ( 0.100000E-05)
 Absolute change in total energy   (target) :  0.515757      ( 0.100000E-06)
 Charge distance                   (target) :  0.901237E-02  ( 0.100000E-04)
 Abs. change in max-nonIBS-force   (target) :  0.130837E-01  ( 0.250000E-05)
 
++++++++++++++++++++++++++++++++++++++++++++++++++++++++++++++++++++++++++++++++
| SCF iteration number :    4                                                  +
++++++++++++++++++++++++++++++++++++++++++++++++++++++++++++++++++++++++++++++++
 Total energy                               :       -76.72086985
 _______________________________________________________________
 Fermi energy                               :         0.19409155
 Kinetic energy                             :        75.48057360
 Coulomb energy                             :      -141.39365942
 Exchange energy                            :       -10.38890462
 Correlation energy                         :        -0.41887941
 
 DOS at Fermi energy (states/Ha/cell)       :         1.23157138
 
 Electron charges :
     core                                   :         4.00000000
     core leakage                           :         0.00129026
     valence                                :         8.00000000
     interstitial                           :         4.73963938
     charge in muffin-tin spheres :
                  atom     1     C          :         3.63018031
                  atom     2     C          :         3.63018031
     total charge in muffin-tins            :         7.26036062
     total charge                           :        12.00000000
 
 Wall time (seconds)                        :       417.99
 
 RMS change in effective potential (target) :  0.622045E-01  ( 0.100000E-05)
 Absolute change in total energy   (target) :  0.221745      ( 0.100000E-06)
 Charge distance                   (target) :  0.628138E-02  ( 0.100000E-04)
 Abs. change in max-nonIBS-force   (target) :  0.157251E-01  ( 0.250000E-05)
 
++++++++++++++++++++++++++++++++++++++++++++++++++++++++++++++++++++++++++++++++
| SCF iteration number :    5                                                  +
++++++++++++++++++++++++++++++++++++++++++++++++++++++++++++++++++++++++++++++++
 Total energy                               :       -75.94347621
 _______________________________________________________________
 Fermi energy                               :         0.21411210
 Kinetic energy                             :        75.97784670
 Coulomb energy                             :      -141.15036824
 Exchange energy                            :       -10.35100194
 Correlation energy                         :        -0.41995273
 
 DOS at Fermi energy (states/Ha/cell)       :         1.33180802
 
 Electron charges :
     core                                   :         4.00000000
     core leakage                           :         0.00130885
     valence                                :         8.00000000
     interstitial                           :         4.80049100
     charge in muffin-tin spheres :
                  atom     1     C          :         3.59975450
                  atom     2     C          :         3.59975450
     total charge in muffin-tins            :         7.19950900
     total charge                           :        12.00000000
 
 Wall time (seconds)                        :       521.87
 
 RMS change in effective potential (target) :  0.321916E-01  ( 0.100000E-05)
 Absolute change in total energy   (target) :  0.777394      ( 0.100000E-06)
 Charge distance                   (target) :  0.124952E-01  ( 0.100000E-04)
 Abs. change in max-nonIBS-force   (target) :  0.857769E-02  ( 0.250000E-05)
 
++++++++++++++++++++++++++++++++++++++++++++++++++++++++++++++++++++++++++++++++
| SCF iteration number :    6                                                  +
++++++++++++++++++++++++++++++++++++++++++++++++++++++++++++++++++++++++++++++++
 Total energy                               :       -76.20365710
 _______________________________________________________________
 Fermi energy                               :         0.20754295
 Kinetic energy                             :        75.81192422
 Coulomb energy                             :      -141.23219039
 Exchange energy                            :       -10.36380574
 Correlation energy                         :        -0.41958519
 
 DOS at Fermi energy (states/Ha/cell)       :         1.29634610
 
 Electron charges :
     core                                   :         4.00000000
     core leakage                           :         0.00130280
     valence                                :         8.00000000
     interstitial                           :         4.77989665
     charge in muffin-tin spheres :
                  atom     1     C          :         3.61005167
                  atom     2     C          :         3.61005167
     total charge in muffin-tins            :         7.22010335
     total charge                           :        12.00000000
 
 Wall time (seconds)                        :       624.56
 
 RMS change in effective potential (target) :  0.556812E-03  ( 0.100000E-05)
 Absolute change in total energy   (target) :  0.260181      ( 0.100000E-06)
 Charge distance                   (target) :  0.426377E-02  ( 0.100000E-04)
 Abs. change in max-nonIBS-force   (target) :  0.488492E-02  ( 0.250000E-05)
 
++++++++++++++++++++++++++++++++++++++++++++++++++++++++++++++++++++++++++++++++
| SCF iteration number :    7                                                  +
++++++++++++++++++++++++++++++++++++++++++++++++++++++++++++++++++++++++++++++++
 Total energy                               :       -76.20503314
 _______________________________________________________________
 Fermi energy                               :         0.20750338
 Kinetic energy                             :        75.81128332
 Coulomb energy                             :      -141.23286601
 Exchange energy                            :       -10.36386841
 Correlation energy                         :        -0.41958205
 
 DOS at Fermi energy (states/Ha/cell)       :         1.29636277
 
 Electron charges :
     core                                   :         4.00000000
     core leakage                           :         0.00130269
     valence                                :         8.00000000
     interstitial                           :         4.77980751
     charge in muffin-tin spheres :
                  atom     1     C          :         3.61009624
                  atom     2     C          :         3.61009624
     total charge in muffin-tins            :         7.22019249
     total charge                           :        12.00000000
 
 Wall time (seconds)                        :       727.21
 
 RMS change in effective potential (target) :  0.140641E-03  ( 0.100000E-05)
 Absolute change in total energy   (target) :  0.137604E-02  ( 0.100000E-06)
 Charge distance                   (target) :  0.198400E-04  ( 0.100000E-04)
 Abs. change in max-nonIBS-force   (target) :  0.777373E-04  ( 0.250000E-05)
 
++++++++++++++++++++++++++++++++++++++++++++++++++++++++++++++++++++++++++++++++
| SCF iteration number :    8                                                  +
++++++++++++++++++++++++++++++++++++++++++++++++++++++++++++++++++++++++++++++++
 Total energy                               :       -76.20556162
 _______________________________________________________________
 Fermi energy                               :         0.20748944
 Kinetic energy                             :        75.81087729
 Coulomb energy                             :      -141.23296475
 Exchange energy                            :       -10.36389257
 Correlation energy                         :        -0.41958160
 
 DOS at Fermi energy (states/Ha/cell)       :         1.29625850
 
 Electron charges :
     core                                   :         4.00000000
     core leakage                           :         0.00130270
     valence                                :         8.00000000
     interstitial                           :         4.77976554
     charge in muffin-tin spheres :
                  atom     1     C          :         3.61011723
                  atom     2     C          :         3.61011723
     total charge in muffin-tins            :         7.22023446
     total charge                           :        12.00000000
 
 Wall time (seconds)                        :       829.91
 
 RMS change in effective potential (target) :  0.170594E-04  ( 0.100000E-05)
 Absolute change in total energy   (target) :  0.528473E-03  ( 0.100000E-06)
 Charge distance                   (target) :  0.105260E-04  ( 0.100000E-04)
 Abs. change in max-nonIBS-force   (target) :  0.201076E-04  ( 0.250000E-05)
 
++++++++++++++++++++++++++++++++++++++++++++++++++++++++++++++++++++++++++++++++
| SCF iteration number :    9                                                  +
++++++++++++++++++++++++++++++++++++++++++++++++++++++++++++++++++++++++++++++++
 Total energy                               :       -76.20542342
 _______________________________________________________________
 Fermi energy                               :         0.20749290
 Kinetic energy                             :        75.81096561
 Coulomb energy                             :      -141.23292136
 Exchange energy                            :       -10.36388588
 Correlation energy                         :        -0.41958179
 
 DOS at Fermi energy (states/Ha/cell)       :         1.29627727
 
 Electron charges :
     core                                   :         4.00000000
     core leakage                           :         0.00130270
     valence                                :         8.00000000
     interstitial                           :         4.77977627
     charge in muffin-tin spheres :
                  atom     1     C          :         3.61011186
                  atom     2     C          :         3.61011186
     total charge in muffin-tins            :         7.22022373
     total charge                           :        12.00000000
 
 Wall time (seconds)                        :       932.58
 
 RMS change in effective potential (target) :  0.155936E-05  ( 0.100000E-05)
 Absolute change in total energy   (target) :  0.138193E-03  ( 0.100000E-06)
 Charge distance                   (target) :  0.223879E-05  ( 0.100000E-04)
 Abs. change in max-nonIBS-force   (target) :  0.278525E-05  ( 0.250000E-05)
 
++++++++++++++++++++++++++++++++++++++++++++++++++++++++++++++++++++++++++++++++
| SCF iteration number :   10                                                  +
++++++++++++++++++++++++++++++++++++++++++++++++++++++++++++++++++++++++++++++++
 Total energy                               :       -76.20542311
 _______________________________________________________________
 Fermi energy                               :         0.20749293
 Kinetic energy                             :        75.81096627
 Coulomb energy                             :      -141.23292172
 Exchange energy                            :       -10.36388587
 Correlation energy                         :        -0.41958179
 
 DOS at Fermi energy (states/Ha/cell)       :         1.29627705
 
 Electron charges :
     core                                   :         4.00000000
     core leakage                           :         0.00130270
     valence                                :         8.00000000
     interstitial                           :         4.77977631
     charge in muffin-tin spheres :
                  atom     1     C          :         3.61011184
                  atom     2     C          :         3.61011184
     total charge in muffin-tins            :         7.22022369
     total charge                           :        12.00000000
 
 Wall time (seconds)                        :      1035.24
 
 RMS change in effective potential (target) :  0.122103E-06  ( 0.100000E-05)
 Absolute change in total energy   (target) :  0.314036E-06  ( 0.100000E-06)
 Charge distance                   (target) :  0.199061E-06  ( 0.100000E-04)
 Abs. change in max-nonIBS-force   (target) :  0.250894E-05  ( 0.250000E-05)
 
++++++++++++++++++++++++++++++++++++++++++++++++++++++++++++++++++++++++++++++++
| SCF iteration number :   11                                                  +
++++++++++++++++++++++++++++++++++++++++++++++++++++++++++++++++++++++++++++++++
 Total energy                               :       -76.20542319
 _______________________________________________________________
 Fermi energy                               :         0.20749293
 Kinetic energy                             :        75.81096626
 Coulomb energy                             :      -141.23292178
 Exchange energy                            :       -10.36388588
 Correlation energy                         :        -0.41958179
 
 DOS at Fermi energy (states/Ha/cell)       :         1.29627715
 
 Electron charges :
     core                                   :         4.00000000
     core leakage                           :         0.00130270
     valence                                :         8.00000000
     interstitial                           :         4.77977630
     charge in muffin-tin spheres :
                  atom     1     C          :         3.61011185
                  atom     2     C          :         3.61011185
     total charge in muffin-tins            :         7.22022370
     total charge                           :        12.00000000
 
 Wall time (seconds)                        :      1138.09
 
 RMS change in effective potential (target) :  0.769382E-08  ( 0.100000E-05)
 Absolute change in total energy   (target) :  0.787274E-07  ( 0.100000E-06)
 Charge distance                   (target) :  0.492956E-07  ( 0.100000E-04)
 Abs. change in max-nonIBS-force   (target) :  0.820165E-06  ( 0.250000E-05)
 
++++++++++++++++++++++++++++++++++++++++++++++++++++++++++++++++++++++++++++++++
| Convergence targets achieved. Performing final SCF iteration                 +
++++++++++++++++++++++++++++++++++++++++++++++++++++++++++++++++++++++++++++++++
 Total energy                               :       -76.21368517
 _______________________________________________________________
 Fermi energy                               :         0.20749293
 Kinetic energy                             :        75.81096624
 Coulomb energy                             :      -141.23292179
 Exchange energy                            :       -10.36388588
 Correlation energy                         :        -0.41958179
 DFT-D2 dispersion correction               :        -0.00826195
 
 DOS at Fermi energy (states/Ha/cell)       :         1.29627715
 
 Electron charges :
     core                                   :         4.00000000
     core leakage                           :         0.00130270
     valence                                :         8.00000000
     interstitial                           :         4.77977630
     charge in muffin-tin spheres :
                  atom     1     C          :         3.61011185
                  atom     2     C          :         3.61011185
     total charge in muffin-tins            :         7.22022370
     total charge                           :        12.00000000
 
++++++++++++++++++++++++++++++++++++++++++++++++++++++++++++++++++++++++++++++++
| Self-consistent loop stopped                                                 +
++++++++++++++++++++++++++++++++++++++++++++++++++++++++++++++++++++++++++++++++
 STATE.OUT is written
 
--------------------------------------------------------------------------------
| Writing atomic positions and forces                                          -
--------------------------------------------------------------------------------
 
 Atomic positions (lattice) :
 atom     1   C  :     0.00000000    0.00000000    0.00000000
 atom     2   C  :     0.33333333    0.33333333    0.00000000
 
 Total atomic forces including IBS (cartesian) :
 atom     1   C  :     0.00000000   -0.00485341    0.00000000
 atom     2   C  :     0.00000000    0.00485341    0.00000000
 
 Atomic force components including IBS (cartesian) :
 atom     1   C  :     0.00000000    0.00303212    0.00000000   HF force
                 :     0.00000000   -0.00790108    0.00000000   core correction
                 :     0.00000000   -0.00012218    0.00000000   IBS correction
                 :     0.00000000    0.00013774    0.00000000   DFT-D2 force
 atom     2   C  :     0.00000000   -0.00303212    0.00000000   HF force
                 :     0.00000000    0.00790108    0.00000000   core correction
                 :     0.00000000    0.00012218    0.00000000   IBS correction
                 :     0.00000000   -0.00013774    0.00000000   DFT-D2 force
 
********************************************************************************
| Groundstate module stopped                                                   *
********************************************************************************
 
********************************************************************************
| Structure-optimization module started                                        *
********************************************************************************
 Output level for this task is set to normal
 
 Maximum displacement tau_BFGS   is         :         0.3000
 Maximum displacement tau_newton is         :         0.8000
 
++++++++++++++++++++++++++++++++++++++++++++++++++++++++++++++++++++++++++++++++
| Use harmonic method for optimizing atomic positions                          +
++++++++++++++++++++++++++++++++++++++++++++++++++++++++++++++++++++++++++++++++
 
--------------------------------------------------------------------------------
| Optimization step 0: Initialize optimization                                 -
--------------------------------------------------------------------------------
 Maximum force magnitude           (target) :         0.00485341  (  0.00001000)
 Total energy at this optimization step     :       -76.21368517
 
 Atomic positions at this step (lattice) :
 atom     1   C  :     0.00000000    0.00000000    0.00000000
 atom     2   C  :     0.33333333    0.33333333    0.00000000
 
 Total atomic forces including IBS (cartesian) :
 atom     1   C  :     0.00000000   -0.00485341    0.00000000
 atom     2   C  :     0.00000000    0.00485341    0.00000000
 
--------------------------------------------------------------------------------
| Optimization step    1    (method = harmonic)                                -
--------------------------------------------------------------------------------
 Number of scf iterations                   :        13  (full newton step)
 Maximum force magnitude           (target) :         0.00083016  (  0.00001000)
 Total energy at this optimization step     :       -76.21370676
 
 Atomic positions at this step (lattice) :
 atom     1   C  :     0.00000000    0.00000000    0.00000000
 atom     2   C  :     0.33429667    0.33429667    0.00000000
 
 Total atomic forces including IBS (cartesian) :
 atom     1   C  :     0.00000000   -0.00083016    0.00000000
 atom     2   C  :     0.00000000    0.00083016    0.00000000
 
 Time spent in this optimization step       :      1418.71 seconds
 
--------------------------------------------------------------------------------
| Optimization step    2    (method = harmonic)                                -
--------------------------------------------------------------------------------
 Number of scf iterations                   :        12  (full harmonic step)
 Maximum force magnitude           (target) :         0.00000505  (  0.00001000)
 Total energy at this optimization step     :       -76.21370734
 
 Atomic positions at this step (lattice) :
 atom     1   C  :     0.00000000    0.00000000    0.00000000
 atom     2   C  :     0.33449545    0.33449545    0.00000000
 
 Total atomic forces including IBS (cartesian) :
 atom     1   C  :     0.00000000   -0.00000505    0.00000000
 atom     2   C  :     0.00000000    0.00000505    0.00000000
 
 Time spent in this optimization step       :      1315.08 seconds
 
++++++++++++++++++++++++++++++++++++++++++++++++++++++++++++++++++++++++++++++++
| Force convergence target achieved                                            +
++++++++++++++++++++++++++++++++++++++++++++++++++++++++++++++++++++++++++++++++
 Total energy                               :       -76.21370734
 _______________________________________________________________
 Fermi energy                               :         0.20749599
 Kinetic energy                             :        75.80986338
 Coulomb energy                             :      -141.23203601
 Exchange energy                            :       -10.36369078
 Correlation energy                         :        -0.41958329
 DFT-D2 dispersion correction               :        -0.00826063
 
 DOS at Fermi energy (states/Ha/cell)       :         1.29233230
 
 Electron charges :
     core                                   :         4.00000000
     core leakage                           :         0.00130264
     valence                                :         8.00000000
     interstitial                           :         4.78032196
     charge in muffin-tin spheres :
                  atom     1     C          :         3.60983902
                  atom     2     C          :         3.60983902
     total charge in muffin-tins            :         7.21967804
     total charge                           :        12.00000000
 
 Optimized atomic positions (lattice) :
 atom     1   C  :     0.00000000    0.00000000    0.00000000
 atom     2   C  :     0.33449545    0.33449545    0.00000000
 
 Total atomic forces including IBS (cartesian) :
 atom     1   C  :     0.00000000   -0.00000505    0.00000000
 atom     2   C  :     0.00000000    0.00000505    0.00000000
 
 Atomic force components including IBS (cartesian) :
 atom     1   C  :     0.00000000    0.00789155    0.00000000   HF force
                 :     0.00000000   -0.00788085    0.00000000   core correction
                 :     0.00000000   -0.00016016    0.00000000   IBS correction
                 :     0.00000000    0.00014441    0.00000000   DFT-D2 force
 atom     2   C  :     0.00000000   -0.00789155    0.00000000   HF force
                 :     0.00000000    0.00788085    0.00000000   core correction
                 :     0.00000000    0.00016016    0.00000000   IBS correction
                 :     0.00000000   -0.00014441    0.00000000   DFT-D2 force
 
********************************************************************************
| Structure-optimization module stopped                                        *
********************************************************************************
 
 Total time spent (seconds)                 :      4057.63
 
================================================================================
| EXCITING BORON stopped                                                       =
================================================================================
